d 1.003808 19 35 tcp 1500 ------N 7 23.0 35.3 5553841 7870
d 1.003809 19 35 tcp 1500 ------N 7 23.0 35.3 5556761 7873
d 1.003809 19 35 tcp 1500 ------N 7 23.0 35.3 5559681 7876
d 1.003809 19 35 tcp 1500 ------N 7 23.0 35.3 5562601 7879
d 1.003809 19 35 tcp 1500 ------N 7 23.0 35.3 5565521 7882
d 1.00381 19 35 tcp 1500 ------N 7 23.0 35.3 5568441 7885
d 1.00381 19 35 tcp 1500 ------N 7 23.0 35.3 5571361 7888
d 1.00381 19 35 tcp 1500 ------N 7 23.0 35.3 5574281 7891
d 1.003811 19 35 tcp 1500 ------N 7 23.0 35.3 5577201 7894
d 1.003811 19 35 tcp 1500 ------N 7 23.0 35.3 5580121 7897
d 1.003811 19 35 tcp 1500 ------N 7 23.0 35.3 5583041 7900
d 1.003812 19 35 tcp 1500 ------N 7 23.0 35.3 5585961 7903
d 1.003812 19 35 tcp 1500 ------N 7 23.0 35.3 5588881 7906
d 1.003812 19 35 tcp 1500 ------N 7 23.0 35.3 5591801 7909
d 1.003812 19 35 tcp 1500 ------N 7 23.0 35.3 5594721 7912
d 1.003813 19 35 tcp 1500 ------N 7 23.0 35.3 5597641 7915
d 1.003813 19 35 tcp 1500 ------N 7 23.0 35.3 5600561 7918
d 1.003813 19 35 tcp 1500 ------N 7 23.0 35.3 5603481 7921
d 1.003814 19 35 tcp 1500 ------N 7 23.0 35.3 5606401 7924
d 1.003814 19 35 tcp 1500 ------N 7 23.0 35.3 5609321 7927
d 1.003814 19 35 tcp 1500 ------N 7 23.0 35.3 5612241 7930
d 1.003815 19 35 tcp 1500 ------N 7 23.0 35.3 5615161 7933
d 1.003815 19 35 tcp 1500 ------N 7 23.0 35.3 5618081 7936
d 1.003815 19 35 tcp 1500 ------N 7 23.0 35.3 5621001 7939
d 1.003815 19 35 tcp 1500 ------N 7 23.0 35.3 5623921 7942
d 1.003816 19 35 tcp 1500 ------N 7 23.0 35.3 5626841 7945
d 1.003816 19 35 tcp 1500 ------N 7 23.0 35.3 5629761 7948
d 1.003816 19 35 tcp 1500 ------N 7 23.0 35.3 5632681 7951
d 1.003817 19 35 tcp 1500 ------N 7 23.0 35.3 5635601 7954
d 1.003817 19 35 tcp 1500 ------N 7 23.0 35.3 5638521 7957
d 1.003817 19 35 tcp 1500 ------N 7 23.0 35.3 5641441 7960
d 1.003818 19 35 tcp 1500 ------N 7 23.0 35.3 5644361 7963
d 1.003818 19 35 tcp 1500 ------N 7 23.0 35.3 5647281 7966
d 1.003818 19 35 tcp 1500 ------N 7 23.0 35.3 5650201 7969
d 1.003818 19 35 tcp 1500 ------N 7 23.0 35.3 5653121 7972
d 1.003819 19 35 tcp 1500 ------N 7 23.0 35.3 5656041 7975
d 1.003819 19 35 tcp 1500 ------N 7 23.0 35.3 5658961 7978
d 1.003819 19 35 tcp 1500 ------N 7 23.0 35.3 5661881 7981
d 1.00382 19 35 tcp 1500 ------N 7 23.0 35.3 5664801 7984
d 1.00382 19 35 tcp 1500 ------N 7 23.0 35.3 5667721 7987
d 1.00382 19 35 tcp 1500 ------N 7 23.0 35.3 5670641 7990
d 1.003821 19 35 tcp 1500 ------N 7 23.0 35.3 5673561 7993
d 1.003821 19 35 tcp 1500 ------N 7 23.0 35.3 5676481 7996
d 1.003821 19 35 tcp 1500 ------N 7 23.0 35.3 5679401 7999
d 1.003821 19 35 tcp 1500 ------N 7 23.0 35.3 5682321 8002
d 1.003822 19 35 tcp 1500 ------N 7 23.0 35.3 5685241 8005
d 1.003822 19 35 tcp 1500 ------N 7 23.0 35.3 5688161 8008
d 1.003822 19 35 tcp 1500 ------N 7 23.0 35.3 5691081 8011
d 1.003823 19 35 tcp 1500 ------N 7 23.0 35.3 5694001 8014
d 1.003823 19 35 tcp 1500 ------N 7 23.0 35.3 5696921 8017
d 1.003823 19 35 tcp 1500 ------N 7 23.0 35.3 5699841 8020
d 1.003824 19 35 tcp 1500 ------N 7 23.0 35.3 5702761 8023
d 1.003824 19 35 tcp 1500 ------N 7 23.0 35.3 5705681 8026
d 1.003824 19 35 tcp 1500 ------N 7 23.0 35.3 5708601 8029
d 1.003824 19 35 tcp 1500 ------N 7 23.0 35.3 5711521 8032
d 1.003825 19 35 tcp 1500 ------N 7 23.0 35.3 5714441 8035
d 1.003825 19 35 tcp 1500 ------N 7 23.0 35.3 5717361 8038
d 1.003825 19 35 tcp 1500 ------N 7 23.0 35.3 5720281 8041
d 1.003826 19 35 tcp 1500 ------N 7 23.0 35.3 5723201 8044
d 1.003826 19 35 tcp 1500 ------N 7 23.0 35.3 5726121 8047
d 1.003826 19 35 tcp 1500 ------N 7 23.0 35.3 5729041 8050
d 1.003827 19 35 tcp 1500 ------N 7 23.0 35.3 5731961 8053
d 1.003827 19 35 tcp 1500 ------N 7 23.0 35.3 5734881 8056
d 1.003827 19 35 tcp 1500 ------N 7 23.0 35.3 5737801 8059
d 1.003827 19 35 tcp 1500 ------N 7 23.0 35.3 5740721 8062
d 1.003828 19 35 tcp 1500 ------N 7 23.0 35.3 5743641 8065
d 1.003828 19 35 tcp 1500 ------N 7 23.0 35.3 5746561 8068
d 1.003828 19 35 tcp 1500 ------N 7 23.0 35.3 5749481 8071
d 1.003829 19 35 tcp 1500 ------N 7 23.0 35.3 5752401 8074
d 1.003829 19 35 tcp 1500 ------N 7 23.0 35.3 5755321 8077
d 1.003829 19 35 tcp 1500 ------N 7 23.0 35.3 5758241 8080
d 1.00383 19 35 tcp 1500 ------N 7 23.0 35.3 5761161 8083
d 1.00383 19 35 tcp 1500 ------N 7 23.0 35.3 5764081 8086
d 1.00383 19 35 tcp 1500 ------N 7 23.0 35.3 5767001 8089
d 1.00383 19 35 tcp 1500 ------N 7 23.0 35.3 5769921 8092
d 1.003831 19 35 tcp 1500 ------N 7 23.0 35.3 5772841 8095
d 1.003831 19 35 tcp 1500 ------N 7 23.0 35.3 5775761 8098
d 1.003831 19 35 tcp 1500 ------N 7 23.0 35.3 5778681 8101
d 1.003832 19 35 tcp 1500 ------N 7 23.0 35.3 5781601 8104
d 1.003832 19 35 tcp 1500 ------N 7 23.0 35.3 5784521 8107
d 1.003832 19 35 tcp 1500 ------N 7 23.0 35.3 5787441 8110
d 1.003833 19 35 tcp 1500 ------N 7 23.0 35.3 5790361 8113
d 1.003833 19 35 tcp 1500 ------N 7 23.0 35.3 5793281 8116
d 1.003833 19 35 tcp 1500 ------N 7 23.0 35.3 5796201 8119
d 1.003833 19 35 tcp 1500 ------N 7 23.0 35.3 5799121 8122
d 1.003834 19 35 tcp 1500 ------N 7 23.0 35.3 5802041 8125
d 1.003834 19 35 tcp 1500 ------N 7 23.0 35.3 5804961 8128
d 1.003834 19 35 tcp 1500 ------N 7 23.0 35.3 5807881 8131
d 1.003835 19 35 tcp 1500 ------N 7 23.0 35.3 5810801 8134
d 1.003835 19 35 tcp 1500 ------N 7 23.0 35.3 5813721 8137
d 1.003835 19 35 tcp 1500 ------N 7 23.0 35.3 5816641 8140
d 1.003836 19 35 tcp 1500 ------N 7 23.0 35.3 5819561 8143
d 1.003836 19 35 tcp 1500 ------N 7 23.0 35.3 5822481 8146
d 1.003836 19 35 tcp 1500 ------N 7 23.0 35.3 5825401 8149
d 1.003836 19 35 tcp 1500 ------N 7 23.0 35.3 5828321 8152
d 1.003837 19 35 tcp 1500 ------N 7 23.0 35.3 5831241 8155
d 1.003837 19 35 tcp 1500 ------N 7 23.0 35.3 5834161 8158
d 1.003837 19 35 tcp 1500 ------N 7 23.0 35.3 5837081 8161
d 1.003869 19 35 tcp 1500 ------N 5 21.0 35.1 23361 8372
d 1.003869 19 35 tcp 1500 ------N 5 21.0 35.1 26281 8375
d 1.003869 19 35 tcp 1500 ------N 5 21.0 35.1 29201 8378
d 1.00387 19 35 tcp 1500 ------N 5 21.0 35.1 32121 8381
d 1.00387 19 35 tcp 1500 ------N 5 21.0 35.1 35041 8384
d 1.00387 19 35 tcp 1500 ------N 5 21.0 35.1 37961 8387
d 1.003871 19 35 tcp 1500 ------N 5 21.0 35.1 40881 8390
d 1.003871 19 35 tcp 1500 ------N 5 21.0 35.1 43801 8393
d 1.004046 19 35 tcp 1500 ------N 6 22.0 35.2 373761 9564
d 1.004047 19 35 tcp 1500 ------N 6 22.0 35.2 376681 9567
d 1.004047 19 35 tcp 1500 ------N 6 22.0 35.2 379601 9570
d 1.004047 19 35 tcp 1500 ------N 6 22.0 35.2 382521 9573
d 1.004048 19 35 tcp 1500 ------N 6 22.0 35.2 385441 9576
d 1.004048 19 35 tcp 1500 ------N 6 22.0 35.2 388361 9579
d 1.004048 19 35 tcp 1500 ------N 6 22.0 35.2 391281 9582
d 1.004049 19 35 tcp 1500 ------N 6 22.0 35.2 394201 9585
d 1.004049 19 35 tcp 1500 ------N 6 22.0 35.2 397121 9588
d 1.004049 19 35 tcp 1500 ------N 6 22.0 35.2 400041 9591
d 1.004049 19 35 tcp 1500 ------N 6 22.0 35.2 402961 9594
d 1.00405 19 35 tcp 1500 ------N 6 22.0 35.2 405881 9597
d 1.00405 19 35 tcp 1500 ------N 6 22.0 35.2 408801 9600
d 1.00405 19 35 tcp 1500 ------N 6 22.0 35.2 411721 9603
d 1.004051 19 35 tcp 1500 ------N 6 22.0 35.2 414641 9606
d 1.004051 19 35 tcp 1500 ------N 6 22.0 35.2 417561 9609
d 1.004051 19 35 tcp 1500 ------N 6 22.0 35.2 420481 9612
d 1.004052 19 35 tcp 1500 ------N 6 22.0 35.2 423401 9615
d 1.004052 19 35 tcp 1500 ------N 6 22.0 35.2 426321 9618
d 1.004052 19 35 tcp 1500 ------N 6 22.0 35.2 429241 9621
d 1.004052 19 35 tcp 1500 ------N 6 22.0 35.2 432161 9624
d 1.004053 19 35 tcp 1500 ------N 6 22.0 35.2 435081 9627
d 1.004053 19 35 tcp 1500 ------N 6 22.0 35.2 438001 9630
d 1.004053 19 35 tcp 1500 ------N 6 22.0 35.2 440921 9633
d 1.004054 19 35 tcp 1500 ------N 6 22.0 35.2 443841 9636
d 1.004054 19 35 tcp 1500 ------N 6 22.0 35.2 446761 9639
d 1.004054 19 35 tcp 1500 ------N 6 22.0 35.2 449681 9642
d 1.004055 19 35 tcp 1500 ------N 6 22.0 35.2 452601 9645
d 1.004055 19 35 tcp 1500 ------N 6 22.0 35.2 455521 9648
d 1.004055 19 35 tcp 1500 ------N 6 22.0 35.2 458441 9651
d 1.004055 19 35 tcp 1500 ------N 6 22.0 35.2 461361 9654
d 1.004056 19 35 tcp 1500 ------N 6 22.0 35.2 464281 9657
d 1.004056 19 35 tcp 1500 ------N 6 22.0 35.2 467201 9660
d 1.004056 19 35 tcp 1500 ------N 6 22.0 35.2 470121 9663
d 1.004057 19 35 tcp 1500 ------N 6 22.0 35.2 473041 9666
d 1.004057 19 35 tcp 1500 ------N 6 22.0 35.2 475961 9669
d 1.004057 19 35 tcp 1500 ------N 6 22.0 35.2 478881 9672
d 1.004058 19 35 tcp 1500 ------N 6 22.0 35.2 481801 9675
d 1.004058 19 35 tcp 1500 ------N 6 22.0 35.2 484721 9678
d 1.004058 19 35 tcp 1500 ------N 6 22.0 35.2 487641 9681
d 1.004058 19 35 tcp 1500 ------N 6 22.0 35.2 490561 9684
d 1.004059 19 35 tcp 1500 ------N 6 22.0 35.2 493481 9687
d 1.004059 19 35 tcp 1500 ------N 6 22.0 35.2 496401 9690
d 1.004059 19 35 tcp 1500 ------N 6 22.0 35.2 499321 9693
d 1.00406 19 35 tcp 1500 ------N 6 22.0 35.2 502241 9696
d 1.00406 19 35 tcp 1500 ------N 6 22.0 35.2 505161 9699
d 1.00406 19 35 tcp 1500 ------N 6 22.0 35.2 508081 9702
d 1.004061 19 35 tcp 1500 ------N 6 22.0 35.2 511001 9705
d 1.004061 19 35 tcp 1500 ------N 6 22.0 35.2 513921 9708
d 1.004061 19 35 tcp 1500 ------N 6 22.0 35.2 516841 9711
d 1.004061 19 35 tcp 1500 ------N 6 22.0 35.2 519761 9714
d 1.004062 19 35 tcp 1500 ------N 6 22.0 35.2 522681 9717
d 1.004062 19 35 tcp 1500 ------N 6 22.0 35.2 525601 9720
d 1.004062 19 35 tcp 1500 ------N 6 22.0 35.2 528521 9723
d 1.004063 19 35 tcp 1500 ------N 6 22.0 35.2 531441 9726
d 1.004063 19 35 tcp 1500 ------N 6 22.0 35.2 534361 9729
d 1.004063 19 35 tcp 1500 ------N 6 22.0 35.2 537281 9732
d 1.004064 19 35 tcp 1500 ------N 6 22.0 35.2 540201 9735
d 1.004064 19 35 tcp 1500 ------N 6 22.0 35.2 543121 9738
d 1.004064 19 35 tcp 1500 ------N 6 22.0 35.2 546041 9741
d 1.004064 19 35 tcp 1500 ------N 6 22.0 35.2 548961 9744
d 1.004065 19 35 tcp 1500 ------N 6 22.0 35.2 551881 9747
d 1.004065 19 35 tcp 1500 ------N 6 22.0 35.2 554801 9750
d 1.004065 19 35 tcp 1500 ------N 6 22.0 35.2 557721 9753
d 1.004066 19 35 tcp 1500 ------N 6 22.0 35.2 560641 9756
d 1.004066 19 35 tcp 1500 ------N 6 22.0 35.2 563561 9759
d 1.004066 19 35 tcp 1500 ------N 6 22.0 35.2 566481 9762
d 1.004067 19 35 tcp 1500 ------N 6 22.0 35.2 569401 9765
d 1.004067 19 35 tcp 1500 ------N 6 22.0 35.2 572321 9768
d 1.004067 19 35 tcp 1500 ------N 6 22.0 35.2 575241 9771
d 1.004067 19 35 tcp 1500 ------N 6 22.0 35.2 578161 9774
d 1.004068 19 35 tcp 1500 ------N 6 22.0 35.2 581081 9777
d 1.004068 19 35 tcp 1500 ------N 6 22.0 35.2 584001 9780
d 1.004068 19 35 tcp 1500 ------N 6 22.0 35.2 586921 9783
d 1.004069 19 35 tcp 1500 ------N 6 22.0 35.2 589841 9786
d 1.004069 19 35 tcp 1500 ------N 6 22.0 35.2 592761 9789
d 1.004069 19 35 tcp 1500 ------N 6 22.0 35.2 595681 9792
d 1.00407 19 35 tcp 1500 ------N 6 22.0 35.2 598601 9795
d 1.00407 19 35 tcp 1500 ------N 6 22.0 35.2 601521 9798
d 1.00407 19 35 tcp 1500 ------N 6 22.0 35.2 604441 9801
d 1.00407 19 35 tcp 1500 ------N 6 22.0 35.2 607361 9804
d 1.004071 19 35 tcp 1500 ------N 6 22.0 35.2 610281 9807
d 1.004071 19 35 tcp 1500 ------N 6 22.0 35.2 613201 9810
d 1.004071 19 35 tcp 1500 ------N 6 22.0 35.2 616121 9813
d 1.004072 19 35 tcp 1500 ------N 6 22.0 35.2 619041 9816
d 1.004072 19 35 tcp 1500 ------N 6 22.0 35.2 621961 9819
d 1.004072 19 35 tcp 1500 ------N 6 22.0 35.2 624881 9822
d 1.004073 19 35 tcp 1500 ------N 6 22.0 35.2 627801 9825
d 1.004073 19 35 tcp 1500 ------N 6 22.0 35.2 630721 9828
d 1.004073 19 35 tcp 1500 ------N 6 22.0 35.2 633641 9831
d 1.004073 19 35 tcp 1500 ------N 6 22.0 35.2 636561 9834
d 1.004074 19 35 tcp 1500 ------N 6 22.0 35.2 639481 9837
d 1.004074 19 35 tcp 1500 ------N 6 22.0 35.2 642401 9840
d 1.004074 19 35 tcp 1500 ------N 6 22.0 35.2 645321 9843
d 1.004075 19 35 tcp 1500 ------N 6 22.0 35.2 648241 9846
d 1.004075 19 35 tcp 1500 ------N 6 22.0 35.2 651161 9849
d 1.004075 19 35 tcp 1500 ------N 6 22.0 35.2 654081 9852
d 1.004076 19 35 tcp 1500 ------N 6 22.0 35.2 657001 9855
d 1.004076 19 35 tcp 1500 ------N 6 22.0 35.2 659921 9858
d 1.004076 19 35 tcp 1500 ------N 6 22.0 35.2 662841 9861
d 1.004076 19 35 tcp 1500 ------N 6 22.0 35.2 665761 9864
d 1.004077 19 35 tcp 1500 ------N 6 22.0 35.2 668681 9867
d 1.004077 19 35 tcp 1500 ------N 6 22.0 35.2 671601 9870
d 1.004077 19 35 tcp 1500 ------N 6 22.0 35.2 674521 9873
d 1.004078 19 35 tcp 1500 ------N 6 22.0 35.2 677441 9876
d 1.004078 19 35 tcp 1500 ------N 6 22.0 35.2 680361 9879
d 1.004078 19 35 tcp 1500 ------N 6 22.0 35.2 683281 9882
d 1.004079 19 35 tcp 1500 ------N 6 22.0 35.2 686201 9885
d 1.004079 19 35 tcp 1500 ------N 6 22.0 35.2 689121 9888
d 1.004079 19 35 tcp 1500 ------N 6 22.0 35.2 692041 9891
d 1.004079 19 35 tcp 1500 ------N 6 22.0 35.2 694961 9894
d 1.00408 19 35 tcp 1500 ------N 6 22.0 35.2 697881 9897
d 1.00408 19 35 tcp 1500 ------N 6 22.0 35.2 700801 9900
d 1.00408 19 35 tcp 1500 ------N 6 22.0 35.2 703721 9903
d 1.004081 19 35 tcp 1500 ------N 6 22.0 35.2 706641 9906
d 1.004081 19 35 tcp 1500 ------N 6 22.0 35.2 709561 9909
d 1.004081 19 35 tcp 1500 ------N 6 22.0 35.2 712481 9912
d 1.004082 19 35 tcp 1500 ------N 6 22.0 35.2 715401 9915
d 1.004082 19 35 tcp 1500 ------N 6 22.0 35.2 718321 9918
d 1.004082 19 35 tcp 1500 ------N 6 22.0 35.2 721241 9921
d 1.004082 19 35 tcp 1500 ------N 6 22.0 35.2 724161 9924
d 1.004083 19 35 tcp 1500 ------N 6 22.0 35.2 727081 9927
d 1.004083 19 35 tcp 1500 ------N 6 22.0 35.2 730001 9930
d 1.004083 19 35 tcp 1500 ------N 6 22.0 35.2 732921 9933
d 1.004084 19 35 tcp 1500 ------N 6 22.0 35.2 735841 9936
d 1.004084 19 35 tcp 1500 ------N 6 22.0 35.2 738761 9939
d 1.004084 19 35 tcp 1500 ------N 6 22.0 35.2 741681 9942
d 1.004085 19 35 tcp 1500 ------N 6 22.0 35.2 744601 9945
d 1.005562 19 35 tcp 1500 ------N 4 20.0 35.0 5183001 19775
d 1.005562 19 35 tcp 1500 ------N 4 20.0 35.0 5185921 19778
d 1.005563 19 35 tcp 1500 ------N 4 20.0 35.0 5188841 19781
d 1.005563 19 35 tcp 1500 ------N 4 20.0 35.0 5191761 19784
d 1.005563 19 35 tcp 1500 ------N 4 20.0 35.0 5194681 19787
d 1.005564 19 35 tcp 1500 ------N 4 20.0 35.0 5197601 19790
d 1.005564 19 35 tcp 1500 ------N 4 20.0 35.0 5200521 19793
d 1.005564 19 35 tcp 1500 ------N 4 20.0 35.0 5203441 19796
d 1.005565 19 35 tcp 1500 ------N 4 20.0 35.0 5206361 19799
d 1.005565 19 35 tcp 1500 ------N 4 20.0 35.0 5209281 19802
d 1.005565 19 35 tcp 1500 ------N 4 20.0 35.0 5212201 19805
d 1.005565 19 35 tcp 1500 ------N 4 20.0 35.0 5215121 19808
d 1.005566 19 35 tcp 1500 ------N 4 20.0 35.0 5218041 19811
d 1.005566 19 35 tcp 1500 ------N 4 20.0 35.0 5220961 19814
d 1.005566 19 35 tcp 1500 ------N 4 20.0 35.0 5223881 19817
d 1.005567 19 35 tcp 1500 ------N 4 20.0 35.0 5226801 19820
d 1.005567 19 35 tcp 1500 ------N 4 20.0 35.0 5229721 19823
d 1.005567 19 35 tcp 1500 ------N 4 20.0 35.0 5232641 19826
d 1.005568 19 35 tcp 1500 ------N 4 20.0 35.0 5235561 19829
d 1.005568 19 35 tcp 1500 ------N 4 20.0 35.0 5238481 19832
d 1.005568 19 35 tcp 1500 ------N 4 20.0 35.0 5241401 19835
d 1.005568 19 35 tcp 1500 ------N 4 20.0 35.0 5244321 19838
d 1.005569 19 35 tcp 1500 ------N 4 20.0 35.0 5247241 19841
d 1.005569 19 35 tcp 1500 ------N 4 20.0 35.0 5250161 19844
d 1.005569 19 35 tcp 1500 ------N 4 20.0 35.0 5253081 19847
d 1.00557 19 35 tcp 1500 ------N 4 20.0 35.0 5256001 19850
d 1.00557 19 35 tcp 1500 ------N 4 20.0 35.0 5258921 19853
d 1.00557 19 35 tcp 1500 ------N 4 20.0 35.0 5261841 19856
d 1.005571 19 35 tcp 1500 ------N 4 20.0 35.0 5264761 19859
d 1.005571 19 35 tcp 1500 ------N 4 20.0 35.0 5267681 19862
d 1.005571 19 35 tcp 1500 ------N 4 20.0 35.0 5270601 19865
d 1.005571 19 35 tcp 1500 ------N 4 20.0 35.0 5273521 19868
d 1.005572 19 35 tcp 1500 ------N 4 20.0 35.0 5276441 19871
d 1.005572 19 35 tcp 1500 ------N 4 20.0 35.0 5279361 19874
d 1.005572 19 35 tcp 1500 ------N 4 20.0 35.0 5282281 19877
d 1.005573 19 35 tcp 1500 ------N 4 20.0 35.0 5285201 19880
d 1.005573 19 35 tcp 1500 ------N 4 20.0 35.0 5288121 19883
d 1.005573 19 35 tcp 1500 ------N 4 20.0 35.0 5291041 19886
d 1.005574 19 35 tcp 1500 ------N 4 20.0 35.0 5293961 19889
d 1.005574 19 35 tcp 1500 ------N 4 20.0 35.0 5296881 19892
d 1.005574 19 35 tcp 1500 ------N 4 20.0 35.0 5299801 19895
d 1.005574 19 35 tcp 1500 ------N 4 20.0 35.0 5302721 19898
d 1.005575 19 35 tcp 1500 ------N 4 20.0 35.0 5305641 19901
d 1.005575 19 35 tcp 1500 ------N 4 20.0 35.0 5308561 19904
d 1.005575 19 35 tcp 1500 ------N 4 20.0 35.0 5311481 19907
d 1.005576 19 35 tcp 1500 ------N 4 20.0 35.0 5314401 19910
d 1.005576 19 35 tcp 1500 ------N 4 20.0 35.0 5317321 19913
d 1.005576 19 35 tcp 1500 ------N 4 20.0 35.0 5320241 19916
d 1.005577 19 35 tcp 1500 ------N 4 20.0 35.0 5323161 19919
d 1.005577 19 35 tcp 1500 ------N 4 20.0 35.0 5326081 19922
d 1.005577 19 35 tcp 1500 ------N 4 20.0 35.0 5329001 19925
d 1.005577 19 35 tcp 1500 ------N 4 20.0 35.0 5331921 19928
d 1.005578 19 35 tcp 1500 ------N 4 20.0 35.0 5334841 19931
d 1.005578 19 35 tcp 1500 ------N 4 20.0 35.0 5337761 19934
d 1.005578 19 35 tcp 1500 ------N 4 20.0 35.0 5340681 19937
d 1.005579 19 35 tcp 1500 ------N 4 20.0 35.0 5343601 19940
d 1.005579 19 35 tcp 1500 ------N 4 20.0 35.0 5346521 19943
d 1.005579 19 35 tcp 1500 ------N 4 20.0 35.0 5349441 19946
d 1.00558 19 35 tcp 1500 ------N 4 20.0 35.0 5352361 19949
d 1.00558 19 35 tcp 1500 ------N 4 20.0 35.0 5355281 19952
d 1.00558 19 35 tcp 1500 ------N 4 20.0 35.0 5358201 19955
d 1.00558 19 35 tcp 1500 ------N 4 20.0 35.0 5361121 19958
d 1.005581 19 35 tcp 1500 ------N 4 20.0 35.0 5364041 19961
d 1.005581 19 35 tcp 1500 ------N 4 20.0 35.0 5366961 19964
d 1.005581 19 35 tcp 1500 ------N 4 20.0 35.0 5369881 19967
d 1.005582 19 35 tcp 1500 ------N 4 20.0 35.0 5372801 19970
d 1.005582 19 35 tcp 1500 ------N 4 20.0 35.0 5375721 19973
d 1.005582 19 35 tcp 1500 ------N 4 20.0 35.0 5378641 19976
d 1.005583 19 35 tcp 1500 ------N 4 20.0 35.0 5381561 19979
d 1.005583 19 35 tcp 1500 ------N 4 20.0 35.0 5384481 19982
d 1.005583 19 35 tcp 1500 ------N 4 20.0 35.0 5387401 19985
d 1.005583 19 35 tcp 1500 ------N 4 20.0 35.0 5390321 19988
d 1.005584 19 35 tcp 1500 ------N 4 20.0 35.0 5393241 19991
d 1.005584 19 35 tcp 1500 ------N 4 20.0 35.0 5396161 19994
d 1.005584 19 35 tcp 1500 ------N 4 20.0 35.0 5399081 19997
d 1.005585 19 35 tcp 1500 ------N 4 20.0 35.0 5402001 20000
d 1.005585 19 35 tcp 1500 ------N 4 20.0 35.0 5404921 20003
d 1.005585 19 35 tcp 1500 ------N 4 20.0 35.0 5407841 20006
d 1.005586 19 35 tcp 1500 ------N 4 20.0 35.0 5410761 20009
d 1.005586 19 35 tcp 1500 ------N 4 20.0 35.0 5413681 20012
d 1.005586 19 35 tcp 1500 ------N 4 20.0 35.0 5416601 20015
d 1.005586 19 35 tcp 1500 ------N 4 20.0 35.0 5419521 20018
d 1.005587 19 35 tcp 1500 ------N 4 20.0 35.0 5422441 20021
d 1.005587 19 35 tcp 1500 ------N 4 20.0 35.0 5425361 20024
d 1.005587 19 35 tcp 1500 ------N 4 20.0 35.0 5428281 20027
d 1.005588 19 35 tcp 1500 ------N 4 20.0 35.0 5431201 20030
d 1.005588 19 35 tcp 1500 ------N 4 20.0 35.0 5434121 20033
d 1.005588 19 35 tcp 1500 ------N 4 20.0 35.0 5437041 20036
d 1.005589 19 35 tcp 1500 ------N 4 20.0 35.0 5439961 20039
d 1.005589 19 35 tcp 1500 ------N 4 20.0 35.0 5442881 20042
d 1.005589 19 35 tcp 1500 ------N 4 20.0 35.0 5445801 20045
d 1.005589 19 35 tcp 1500 ------N 4 20.0 35.0 5448721 20048
d 1.00559 19 35 tcp 1500 ------N 4 20.0 35.0 5451641 20051
d 1.00559 19 35 tcp 1500 ------N 4 20.0 35.0 5454561 20054
d 1.00559 19 35 tcp 1500 ------N 4 20.0 35.0 5457481 20057
d 1.005591 19 35 tcp 1500 ------N 4 20.0 35.0 5460401 20060
d 1.005591 19 35 tcp 1500 ------N 4 20.0 35.0 5463321 20063
d 1.005591 19 35 tcp 1500 ------N 4 20.0 35.0 5466241 20066
d 1.005592 19 35 tcp 1500 ------N 4 20.0 35.0 5469161 20069
d 1.005592 19 35 tcp 1500 ------N 4 20.0 35.0 5472081 20072
d 1.023582 19 35 tcp 1500 ------N 72 22.10 35.38 5772841 84671
d 1.023583 19 35 tcp 1500 ------N 72 22.10 35.38 5775761 84674
d 1.023583 19 35 tcp 1500 ------N 72 22.10 35.38 5778681 84677
d 1.023583 19 35 tcp 1500 ------N 72 22.10 35.38 5781601 84680
d 1.023583 19 35 tcp 1500 ------N 72 22.10 35.38 5784521 84683
d 1.023584 19 35 tcp 1500 ------N 72 22.10 35.38 5787441 84686
d 1.023584 19 35 tcp 1500 ------N 72 22.10 35.38 5790361 84689
d 1.023584 19 35 tcp 1500 ------N 72 22.10 35.38 5793281 84692
d 1.023585 19 35 tcp 1500 ------N 72 22.10 35.38 5796201 84695
d 1.023585 19 35 tcp 1500 ------N 72 22.10 35.38 5799121 84698
d 1.023585 19 35 tcp 1500 ------N 72 22.10 35.38 5802041 84701
d 1.023586 19 35 tcp 1500 ------N 72 22.10 35.38 5804961 84704
d 1.023586 19 35 tcp 1500 ------N 72 22.10 35.38 5807881 84707
d 1.023586 19 35 tcp 1500 ------N 72 22.10 35.38 5810801 84710
d 1.023586 19 35 tcp 1500 ------N 72 22.10 35.38 5813721 84713
d 1.023587 19 35 tcp 1500 ------N 72 22.10 35.38 5816641 84716
d 1.023587 19 35 tcp 1500 ------N 72 22.10 35.38 5819561 84719
d 1.023587 19 35 tcp 1500 ------N 72 22.10 35.38 5822481 84722
d 1.023588 19 35 tcp 1500 ------N 72 22.10 35.38 5825401 84725
d 1.023588 19 35 tcp 1500 ------N 72 22.10 35.38 5828321 84728
d 1.023588 19 35 tcp 1500 ------N 72 22.10 35.38 5831241 84731
d 1.023589 19 35 tcp 1500 ------N 72 22.10 35.38 5834161 84734
d 1.023589 19 35 tcp 1500 ------N 72 22.10 35.38 5837081 84737
d 1.023604 19 35 tcp 1500 ------N 88 22.12 35.46 186881 84836
d 1.023604 19 35 tcp 1500 ------N 88 22.12 35.46 189801 84839
d 1.023604 19 35 tcp 1500 ------N 88 22.12 35.46 192721 84842
d 1.023604 19 35 tcp 1500 ------N 88 22.12 35.46 195641 84845
d 1.023605 19 35 tcp 1500 ------N 88 22.12 35.46 198561 84848
d 1.023605 19 35 tcp 1500 ------N 88 22.12 35.46 201481 84851
d 1.023605 19 35 tcp 1500 ------N 88 22.12 35.46 204401 84854
d 1.023606 19 35 tcp 1500 ------N 88 22.12 35.46 207321 84857
d 1.023606 19 35 tcp 1500 ------N 88 22.12 35.46 210241 84860
d 1.023606 19 35 tcp 1500 ------N 88 22.12 35.46 213161 84863
d 1.023607 19 35 tcp 1500 ------N 88 22.12 35.46 216081 84866
d 1.023607 19 35 tcp 1500 ------N 88 22.12 35.46 219001 84869
d 1.023607 19 35 tcp 1500 ------N 88 22.12 35.46 221921 84872
d 1.023607 19 35 tcp 1500 ------N 88 22.12 35.46 224841 84875
d 1.023608 19 35 tcp 1500 ------N 88 22.12 35.46 227761 84878
d 1.023608 19 35 tcp 1500 ------N 88 22.12 35.46 230681 84881
d 1.023608 19 35 tcp 1500 ------N 88 22.12 35.46 233601 84884
d 1.023609 19 35 tcp 1500 ------N 88 22.12 35.46 236521 84887
d 1.023609 19 35 tcp 1500 ------N 88 22.12 35.46 239441 84890
d 1.023609 19 35 tcp 1500 ------N 88 22.12 35.46 242361 84893
d 1.02361 19 35 tcp 1500 ------N 88 22.12 35.46 245281 84896
d 1.02361 19 35 tcp 1500 ------N 88 22.12 35.46 248201 84899
d 1.02361 19 35 tcp 1500 ------N 88 22.12 35.46 251121 84902
d 1.02361 19 35 tcp 1500 ------N 88 22.12 35.46 254041 84905
d 1.023611 19 35 tcp 1500 ------N 88 22.12 35.46 256961 84908
d 1.023611 19 35 tcp 1500 ------N 88 22.12 35.46 259881 84911
d 1.023611 19 35 tcp 1500 ------N 88 22.12 35.46 262801 84914
d 1.023612 19 35 tcp 1500 ------N 88 22.12 35.46 265721 84917
d 1.023612 19 35 tcp 1500 ------N 88 22.12 35.46 268641 84920
d 1.023612 19 35 tcp 1500 ------N 88 22.12 35.46 271561 84923
d 1.023613 19 35 tcp 1500 ------N 88 22.12 35.46 274481 84926
d 1.023613 19 35 tcp 1500 ------N 88 22.12 35.46 277401 84929
d 1.023613 19 35 tcp 1500 ------N 88 22.12 35.46 280321 84932
d 1.023613 19 35 tcp 1500 ------N 88 22.12 35.46 283241 84935
d 1.023614 19 35 tcp 1500 ------N 88 22.12 35.46 286161 84938
d 1.023614 19 35 tcp 1500 ------N 88 22.12 35.46 289081 84941
d 1.023614 19 35 tcp 1500 ------N 88 22.12 35.46 292001 84944
d 1.023615 19 35 tcp 1500 ------N 88 22.12 35.46 294921 84947
d 1.023615 19 35 tcp 1500 ------N 88 22.12 35.46 297841 84950
d 1.023615 19 35 tcp 1500 ------N 88 22.12 35.46 300761 84953
d 1.023616 19 35 tcp 1500 ------N 88 22.12 35.46 303681 84956
d 1.023616 19 35 tcp 1500 ------N 88 22.12 35.46 306601 84959
d 1.023616 19 35 tcp 1500 ------N 88 22.12 35.46 309521 84962
d 1.023616 19 35 tcp 1500 ------N 88 22.12 35.46 312441 84965
d 1.023617 19 35 tcp 1500 ------N 88 22.12 35.46 315361 84968
d 1.023617 19 35 tcp 1500 ------N 88 22.12 35.46 318281 84971
d 1.023617 19 35 tcp 1500 ------N 88 22.12 35.46 321201 84974
d 1.023618 19 35 tcp 1500 ------N 88 22.12 35.46 324121 84977
d 1.023618 19 35 tcp 1500 ------N 88 22.12 35.46 327041 84980
d 1.023618 19 35 tcp 1500 ------N 88 22.12 35.46 329961 84983
d 1.023619 19 35 tcp 1500 ------N 88 22.12 35.46 332881 84986
d 1.023619 19 35 tcp 1500 ------N 88 22.12 35.46 335801 84989
d 1.023619 19 35 tcp 1500 ------N 88 22.12 35.46 338721 84992
d 1.023619 19 35 tcp 1500 ------N 88 22.12 35.46 341641 84995
d 1.02362 19 35 tcp 1500 ------N 88 22.12 35.46 344561 84998
d 1.02362 19 35 tcp 1500 ------N 88 22.12 35.46 347481 85001
d 1.02362 19 35 tcp 1500 ------N 88 22.12 35.46 350401 85004
d 1.023621 19 35 tcp 1500 ------N 88 22.12 35.46 353321 85007
d 1.023621 19 35 tcp 1500 ------N 88 22.12 35.46 356241 85010
d 1.023621 19 35 tcp 1500 ------N 88 22.12 35.46 359161 85013
d 1.023622 19 35 tcp 1500 ------N 88 22.12 35.46 362081 85016
d 1.023622 19 35 tcp 1500 ------N 88 22.12 35.46 365001 85019
d 1.023622 19 35 tcp 1500 ------N 88 22.12 35.46 367921 85022
d 1.023622 19 35 tcp 1500 ------N 88 22.12 35.46 370841 85025
d 1.0241 19 35 tcp 1500 ------N 64 23.10 35.34 2921 88211
d 1.076477 19 35 tcp 1500 ------N 236 21.25 35.120 119721 219253
d 1.076478 19 35 tcp 1500 ------N 236 21.25 35.120 122641 219256
d 1.076478 19 35 tcp 1500 ------N 236 21.25 35.120 125561 219259
d 1.076478 19 35 tcp 1500 ------N 236 21.25 35.120 128481 219262
d 1.076479 19 35 tcp 1500 ------N 236 21.25 35.120 131401 219265
d 1.076479 19 35 tcp 1500 ------N 236 21.25 35.120 134321 219268
d 1.076479 19 35 tcp 1500 ------N 236 21.25 35.120 137241 219271
d 1.07648 19 35 tcp 1500 ------N 236 21.25 35.120 140161 219274
d 1.07648 19 35 tcp 1500 ------N 236 21.25 35.120 143081 219277
d 1.07648 19 35 tcp 1500 ------N 236 21.25 35.120 146001 219280
d 1.07648 19 35 tcp 1500 ------N 236 21.25 35.120 148921 219283
d 1.076481 19 35 tcp 1500 ------N 236 21.25 35.120 151841 219286
d 1.076481 19 35 tcp 1500 ------N 236 21.25 35.120 154761 219289
d 1.076481 19 35 tcp 1500 ------N 236 21.25 35.120 157681 219292
d 1.076482 19 35 tcp 1500 ------N 236 21.25 35.120 160601 219295
d 1.076482 19 35 tcp 1500 ------N 236 21.25 35.120 163521 219298
d 1.076482 19 35 tcp 1500 ------N 236 21.25 35.120 166441 219301
d 1.076483 19 35 tcp 1500 ------N 236 21.25 35.120 169361 219304
d 1.076483 19 35 tcp 1500 ------N 236 21.25 35.120 172281 219307
d 1.076483 19 35 tcp 1500 ------N 236 21.25 35.120 175201 219310
d 1.076483 19 35 tcp 1500 ------N 236 21.25 35.120 178121 219313
d 1.076484 19 35 tcp 1500 ------N 236 21.25 35.120 181041 219316
d 1.076484 19 35 tcp 1500 ------N 236 21.25 35.120 183961 219319
d 1.076494 19 35 tcp 1500 ------N 240 21.26 35.122 1 219386
d 1.07693 19 35 tcp 1500 ------N 262 20.35 35.133 2921 222296
d 1.077085 19 35 tcp 1500 ------N 236 21.25 35.120 186881 223329
d 1.077085 19 35 tcp 1500 ------N 236 21.25 35.120 189801 223332
d 1.077085 19 35 tcp 1500 ------N 236 21.25 35.120 192721 223335
d 1.077086 19 35 tcp 1500 ------N 236 21.25 35.120 195641 223338
d 1.077086 19 35 tcp 1500 ------N 236 21.25 35.120 198561 223341
d 1.077086 19 35 tcp 1500 ------N 236 21.25 35.120 201481 223344
d 1.077086 19 35 tcp 1500 ------N 236 21.25 35.120 204401 223347
d 1.077087 19 35 tcp 1500 ------N 236 21.25 35.120 207321 223350
d 1.077087 19 35 tcp 1500 ------N 236 21.25 35.120 210241 223353
d 1.077087 19 35 tcp 1500 ------N 236 21.25 35.120 213161 223356
d 1.077088 19 35 tcp 1500 ------N 236 21.25 35.120 216081 223359
d 1.077088 19 35 tcp 1500 ------N 236 21.25 35.120 219001 223362
d 1.077088 19 35 tcp 1500 ------N 236 21.25 35.120 221921 223365
d 1.077089 19 35 tcp 1500 ------N 236 21.25 35.120 224841 223368
d 1.077089 19 35 tcp 1500 ------N 236 21.25 35.120 227761 223371
d 1.077089 19 35 tcp 1500 ------N 236 21.25 35.120 230681 223374
d 1.077089 19 35 tcp 1500 ------N 236 21.25 35.120 233601 223377
d 1.07709 19 35 tcp 1500 ------N 236 21.25 35.120 236521 223380
d 1.07709 19 35 tcp 1500 ------N 236 21.25 35.120 239441 223383
d 1.11862 19 35 tcp 1500 ------N 414 22.64 35.209 17521 360618
d 1.11862 19 35 tcp 1500 ------N 414 22.64 35.209 20441 360621
d 1.1187 19 35 tcp 1500 ------N 408 23.45 35.206 5841 361158
d 1.118701 19 35 tcp 1500 ------N 408 23.45 35.206 8761 361161
d 1.152512 19 35 tcp 1500 ------N 518 21.62 35.261 105121 490614
d 1.152512 19 35 tcp 1500 ------N 518 21.62 35.261 108041 490617
d 1.152513 19 35 tcp 1500 ------N 518 21.62 35.261 110961 490620
d 1.152513 19 35 tcp 1500 ------N 518 21.62 35.261 113881 490623
d 1.152513 19 35 tcp 1500 ------N 518 21.62 35.261 116801 490626
d 1.152514 19 35 tcp 1500 ------N 518 21.62 35.261 119721 490629
d 1.152514 19 35 tcp 1500 ------N 518 21.62 35.261 122641 490632
d 1.152514 19 35 tcp 1500 ------N 518 21.62 35.261 125561 490635
d 1.152514 19 35 tcp 1500 ------N 518 21.62 35.261 128481 490638
d 1.152515 19 35 tcp 1500 ------N 518 21.62 35.261 131401 490641
d 1.152515 19 35 tcp 1500 ------N 518 21.62 35.261 134321 490644
d 1.152515 19 35 tcp 1500 ------N 518 21.62 35.261 137241 490647
d 1.152516 19 35 tcp 1500 ------N 518 21.62 35.261 140161 490650
d 1.152516 19 35 tcp 1500 ------N 518 21.62 35.261 143081 490653
d 1.152516 19 35 tcp 1500 ------N 518 21.62 35.261 146001 490656
d 1.152517 19 35 tcp 1500 ------N 518 21.62 35.261 148921 490659
d 1.152517 19 35 tcp 1500 ------N 518 21.62 35.261 151841 490662
d 1.152517 19 35 tcp 1500 ------N 518 21.62 35.261 154761 490665
d 1.152517 19 35 tcp 1500 ------N 518 21.62 35.261 157681 490668
d 1.152518 19 35 tcp 1500 ------N 518 21.62 35.261 160601 490671
d 1.152518 19 35 tcp 1500 ------N 518 21.62 35.261 163521 490674
d 1.152518 19 35 tcp 1500 ------N 518 21.62 35.261 166441 490677
d 1.152519 19 35 tcp 1500 ------N 518 21.62 35.261 169361 490680
d 1.152519 19 35 tcp 1500 ------N 518 21.62 35.261 172281 490683
d 1.152519 19 35 tcp 1500 ------N 518 21.62 35.261 175201 490686
d 1.15252 19 35 tcp 1500 ------N 518 21.62 35.261 178121 490689
d 1.15252 19 35 tcp 1500 ------N 518 21.62 35.261 181041 490692