d 1.003377 19 35 tcp 1500 ------N 6 22.0 35.2 108041 3220
d 1.003377 19 35 tcp 1500 ------N 6 22.0 35.2 110961 3223
d 1.003377 19 35 tcp 1500 ------N 6 22.0 35.2 113881 3226
d 1.003378 19 35 tcp 1500 ------N 6 22.0 35.2 116801 3229
d 1.003378 19 35 tcp 1500 ------N 6 22.0 35.2 119721 3232
d 1.003378 19 35 tcp 1500 ------N 6 22.0 35.2 122641 3235
d 1.003379 19 35 tcp 1500 ------N 6 22.0 35.2 125561 3238
d 1.003379 19 35 tcp 1500 ------N 6 22.0 35.2 128481 3241
d 1.003379 19 35 tcp 1500 ------N 6 22.0 35.2 131401 3244
d 1.003379 19 35 tcp 1500 ------N 6 22.0 35.2 134321 3247
d 1.00338 19 35 tcp 1500 ------N 6 22.0 35.2 137241 3250
d 1.00338 19 35 tcp 1500 ------N 6 22.0 35.2 140161 3253
d 1.00338 19 35 tcp 1500 ------N 6 22.0 35.2 143081 3256
d 1.003381 19 35 tcp 1500 ------N 6 22.0 35.2 146001 3259
d 1.003381 19 35 tcp 1500 ------N 6 22.0 35.2 148921 3262
d 1.003381 19 35 tcp 1500 ------N 6 22.0 35.2 151841 3265
d 1.003382 19 35 tcp 1500 ------N 6 22.0 35.2 154761 3268
d 1.003382 19 35 tcp 1500 ------N 6 22.0 35.2 157681 3271
d 1.003382 19 35 tcp 1500 ------N 6 22.0 35.2 160601 3274
d 1.003382 19 35 tcp 1500 ------N 6 22.0 35.2 163521 3277
d 1.003383 19 35 tcp 1500 ------N 6 22.0 35.2 166441 3280
d 1.003383 19 35 tcp 1500 ------N 6 22.0 35.2 169361 3283
d 1.003383 19 35 tcp 1500 ------N 6 22.0 35.2 172281 3286
d 1.003384 19 35 tcp 1500 ------N 6 22.0 35.2 175201 3289
d 1.003384 19 35 tcp 1500 ------N 6 22.0 35.2 178121 3292
d 1.003384 19 35 tcp 1500 ------N 6 22.0 35.2 181041 3295
d 1.003385 19 35 tcp 1500 ------N 6 22.0 35.2 183961 3298
d 1.003422 19 35 tcp 1500 ------N 4 20.0 35.0 2921 3547
d 1.003431 19 35 tcp 1500 ------N 5 21.0 35.1 11681 3610
d 1.003431 19 35 tcp 1500 ------N 5 21.0 35.1 14601 3613
d 1.003432 19 35 tcp 1500 ------N 5 21.0 35.1 17521 3616
d 1.003432 19 35 tcp 1500 ------N 5 21.0 35.1 20441 3619
d 1.003454 19 35 tcp 1500 ------N 6 22.0 35.2 186881 3768
d 1.003455 19 35 tcp 1500 ------N 6 22.0 35.2 189801 3771
d 1.003455 19 35 tcp 1500 ------N 6 22.0 35.2 192721 3774
d 1.003455 19 35 tcp 1500 ------N 6 22.0 35.2 195641 3777
d 1.003455 19 35 tcp 1500 ------N 6 22.0 35.2 198561 3780
d 1.003456 19 35 tcp 1500 ------N 6 22.0 35.2 201481 3783
d 1.003456 19 35 tcp 1500 ------N 6 22.0 35.2 204401 3786
d 1.003456 19 35 tcp 1500 ------N 6 22.0 35.2 207321 3789
d 1.003457 19 35 tcp 1500 ------N 6 22.0 35.2 210241 3792
d 1.003457 19 35 tcp 1500 ------N 6 22.0 35.2 213161 3795
d 1.003457 19 35 tcp 1500 ------N 6 22.0 35.2 216081 3798
d 1.003963 19 35 tcp 1500 ------N 6 22.0 35.2 267181 7171
d 1.003963 19 35 tcp 1500 ------N 6 22.0 35.2 270101 7174
d 1.004019 19 35 tcp 1500 ------N 5 21.0 35.1 71541 7549
d 1.004447 19 35 tcp 1500 ------N 10 20.4 35.7 14601 10409
d 1.004447 19 35 tcp 1500 ------N 10 20.4 35.7 17521 10412
d 1.004448 19 35 tcp 1500 ------N 10 20.4 35.7 20441 10415
d 1.004479 19 35 tcp 1500 ------N 5 21.0 35.1 116801 10628
d 1.004494 19 35 tcp 1500 ------N 8 20.3 35.6 23361 10725
d 1.004494 19 35 tcp 1500 ------N 8 20.3 35.6 26281 10728
d 1.004494 19 35 tcp 1500 ------N 8 20.3 35.6 29201 10731
d 1.004495 19 35 tcp 1500 ------N 8 20.3 35.6 32121 10734
d 1.004495 19 35 tcp 1500 ------N 8 20.3 35.6 35041 10737
d 1.004495 19 35 tcp 1500 ------N 8 20.3 35.6 37961 10740
d 1.004496 19 35 tcp 1500 ------N 8 20.3 35.6 40881 10743
d 1.004496 19 35 tcp 1500 ------N 8 20.3 35.6 43801 10746
d 1.00451 19 35 tcp 1500 ------N 6 22.0 35.2 505161 10839
d 1.004522 19 35 tcp 1500 ------N 12 22.3 35.8 2921 10924
d 1.004527 19 35 tcp 1500 ------N 10 20.4 35.7 23361 10955
d 1.004527 19 35 tcp 1500 ------N 10 20.4 35.7 26281 10958
d 1.004527 19 35 tcp 1500 ------N 10 20.4 35.7 29201 10961
d 1.00733 19 35 tcp 1500 ------N 14 20.5 35.9 289081 29510
d 1.00733 19 35 tcp 1500 ------N 14 20.5 35.9 292001 29513
d 1.00733 19 35 tcp 1500 ------N 14 20.5 35.9 294921 29516
d 1.007331 19 35 tcp 1500 ------N 14 20.5 35.9 297841 29519
d 1.007331 19 35 tcp 1500 ------N 14 20.5 35.9 300761 29522
d 1.007331 19 35 tcp 1500 ------N 14 20.5 35.9 303681 29525
d 1.007331 19 35 tcp 1500 ------N 14 20.5 35.9 306601 29528
d 1.007332 19 35 tcp 1500 ------N 14 20.5 35.9 309521 29531
d 1.007332 19 35 tcp 1500 ------N 14 20.5 35.9 312441 29534
d 1.007332 19 35 tcp 1500 ------N 14 20.5 35.9 315361 29537
d 1.007333 19 35 tcp 1500 ------N 14 20.5 35.9 318281 29540
d 1.007333 19 35 tcp 1500 ------N 14 20.5 35.9 321201 29543
d 1.007333 19 35 tcp 1500 ------N 14 20.5 35.9 324121 29546
d 1.007334 19 35 tcp 1500 ------N 14 20.5 35.9 327041 29549
d 1.007334 19 35 tcp 1500 ------N 14 20.5 35.9 329961 29552
d 1.007334 19 35 tcp 1500 ------N 14 20.5 35.9 332881 29555
d 1.007334 19 35 tcp 1500 ------N 14 20.5 35.9 335801 29558
d 1.007335 19 35 tcp 1500 ------N 14 20.5 35.9 338721 29561
d 1.007335 19 35 tcp 1500 ------N 14 20.5 35.9 341641 29564
d 1.007335 19 35 tcp 1500 ------N 14 20.5 35.9 344561 29567
d 1.007336 19 35 tcp 1500 ------N 14 20.5 35.9 347481 29570
d 1.007336 19 35 tcp 1500 ------N 14 20.5 35.9 350401 29573
d 1.007336 19 35 tcp 1500 ------N 14 20.5 35.9 353321 29576
d 1.007337 19 35 tcp 1500 ------N 14 20.5 35.9 356241 29579
d 1.007337 19 35 tcp 1500 ------N 14 20.5 35.9 359161 29582
d 1.007337 19 35 tcp 1500 ------N 14 20.5 35.9 362081 29585
d 1.007337 19 35 tcp 1500 ------N 14 20.5 35.9 365001 29588
d 1.007338 19 35 tcp 1500 ------N 14 20.5 35.9 367921 29591
d 1.007338 19 35 tcp 1500 ------N 14 20.5 35.9 370841 29594
d 1.00735 19 35 tcp 1500 ------N 6 22.0 35.2 6549561 29677
d 1.007372 19 35 tcp 1500 ------N 5 21.0 35.1 5082261 29820
d 1.007389 19 35 tcp 1500 ------N 14 20.5 35.9 373761 29937
d 1.007389 19 35 tcp 1500 ------N 14 20.5 35.9 376681 29940
d 1.00739 19 35 tcp 1500 ------N 14 20.5 35.9 379601 29943
d 1.00739 19 35 tcp 1500 ------N 14 20.5 35.9 382521 29946
d 1.00739 19 35 tcp 1500 ------N 14 20.5 35.9 385441 29949
d 1.007391 19 35 tcp 1500 ------N 14 20.5 35.9 388361 29952
d 1.007391 19 35 tcp 1500 ------N 14 20.5 35.9 391281 29955
d 1.007391 19 35 tcp 1500 ------N 14 20.5 35.9 394201 29958
d 1.007391 19 35 tcp 1500 ------N 14 20.5 35.9 397121 29961
d 1.007392 19 35 tcp 1500 ------N 14 20.5 35.9 400041 29964
d 1.007392 19 35 tcp 1500 ------N 14 20.5 35.9 402961 29967
d 1.007392 19 35 tcp 1500 ------N 14 20.5 35.9 405881 29970
d 1.007393 19 35 tcp 1500 ------N 14 20.5 35.9 408801 29973
d 1.007393 19 35 tcp 1500 ------N 14 20.5 35.9 411721 29976
d 1.007393 19 35 tcp 1500 ------N 14 20.5 35.9 414641 29979
d 1.007394 19 35 tcp 1500 ------N 14 20.5 35.9 417561 29982
d 1.007394 19 35 tcp 1500 ------N 14 20.5 35.9 420481 29985
d 1.007394 19 35 tcp 1500 ------N 14 20.5 35.9 423401 29988
d 1.007394 19 35 tcp 1500 ------N 14 20.5 35.9 426321 29991
d 1.007395 19 35 tcp 1500 ------N 14 20.5 35.9 429241 29994
d 1.007395 19 35 tcp 1500 ------N 14 20.5 35.9 432161 29997
d 1.007395 19 35 tcp 1500 ------N 14 20.5 35.9 435081 30000
d 1.007396 19 35 tcp 1500 ------N 14 20.5 35.9 438001 30003
d 1.007396 19 35 tcp 1500 ------N 14 20.5 35.9 440921 30006
d 1.007396 19 35 tcp 1500 ------N 14 20.5 35.9 443841 30009
d 1.007397 19 35 tcp 1500 ------N 14 20.5 35.9 446761 30012
d 1.007397 19 35 tcp 1500 ------N 14 20.5 35.9 449681 30015
d 1.007397 19 35 tcp 1500 ------N 14 20.5 35.9 452601 30018
d 1.007397 19 35 tcp 1500 ------N 14 20.5 35.9 455521 30021
d 1.007398 19 35 tcp 1500 ------N 14 20.5 35.9 458441 30024
d 1.007398 19 35 tcp 1500 ------N 14 20.5 35.9 461361 30027
d 1.007398 19 35 tcp 1500 ------N 14 20.5 35.9 464281 30030
d 1.007399 19 35 tcp 1500 ------N 14 20.5 35.9 467201 30033
d 1.007399 19 35 tcp 1500 ------N 14 20.5 35.9 470121 30036
d 1.007399 19 35 tcp 1500 ------N 14 20.5 35.9 473041 30039
d 1.0074 19 35 tcp 1500 ------N 14 20.5 35.9 475961 30042
d 1.0074 19 35 tcp 1500 ------N 14 20.5 35.9 478881 30045
d 1.0074 19 35 tcp 1500 ------N 14 20.5 35.9 481801 30048
d 1.0074 19 35 tcp 1500 ------N 14 20.5 35.9 484721 30051
d 1.007401 19 35 tcp 1500 ------N 14 20.5 35.9 487641 30054
d 1.007401 19 35 tcp 1500 ------N 14 20.5 35.9 490561 30057
d 1.007401 19 35 tcp 1500 ------N 14 20.5 35.9 493481 30060
d 1.007402 19 35 tcp 1500 ------N 14 20.5 35.9 496401 30063
d 1.007402 19 35 tcp 1500 ------N 14 20.5 35.9 499321 30066
d 1.007402 19 35 tcp 1500 ------N 14 20.5 35.9 502241 30069
d 1.007403 19 35 tcp 1500 ------N 14 20.5 35.9 505161 30072
d 1.007403 19 35 tcp 1500 ------N 14 20.5 35.9 508081 30075
d 1.007403 19 35 tcp 1500 ------N 14 20.5 35.9 511001 30078
d 1.007403 19 35 tcp 1500 ------N 14 20.5 35.9 513921 30081
d 1.007404 19 35 tcp 1500 ------N 14 20.5 35.9 516841 30084
d 1.007404 19 35 tcp 1500 ------N 14 20.5 35.9 519761 30087
d 1.007404 19 35 tcp 1500 ------N 14 20.5 35.9 522681 30090
d 1.007405 19 35 tcp 1500 ------N 14 20.5 35.9 525601 30093
d 1.007405 19 35 tcp 1500 ------N 14 20.5 35.9 528521 30096
d 1.007405 19 35 tcp 1500 ------N 14 20.5 35.9 531441 30099
d 1.007406 19 35 tcp 1500 ------N 14 20.5 35.9 534361 30102
d 1.007406 19 35 tcp 1500 ------N 14 20.5 35.9 537281 30105
d 1.007406 19 35 tcp 1500 ------N 14 20.5 35.9 540201 30108
d 1.007406 19 35 tcp 1500 ------N 14 20.5 35.9 543121 30111
d 1.007407 19 35 tcp 1500 ------N 14 20.5 35.9 546041 30114
d 1.007407 19 35 tcp 1500 ------N 14 20.5 35.9 548961 30117
d 1.007407 19 35 tcp 1500 ------N 14 20.5 35.9 551881 30120
d 1.007408 19 35 tcp 1500 ------N 14 20.5 35.9 554801 30123
d 1.007408 19 35 tcp 1500 ------N 14 20.5 35.9 557721 30126
d 1.007408 19 35 tcp 1500 ------N 14 20.5 35.9 560641 30129
d 1.007409 19 35 tcp 1500 ------N 14 20.5 35.9 563561 30132
d 1.007409 19 35 tcp 1500 ------N 14 20.5 35.9 566481 30135
d 1.007409 19 35 tcp 1500 ------N 14 20.5 35.9 569401 30138
d 1.007409 19 35 tcp 1500 ------N 14 20.5 35.9 572321 30141
d 1.00741 19 35 tcp 1500 ------N 14 20.5 35.9 575241 30144
d 1.00741 19 35 tcp 1500 ------N 14 20.5 35.9 578161 30147
d 1.008087 19 35 tcp 1500 ------N 26 21.3 35.15 277401 34669
d 1.008087 19 35 tcp 1500 ------N 26 21.3 35.15 280321 34672
d 1.008088 19 35 tcp 1500 ------N 26 21.3 35.15 283241 34675
d 1.008088 19 35 tcp 1500 ------N 26 21.3 35.15 286161 34678
d 1.008088 19 35 tcp 1500 ------N 26 21.3 35.15 289081 34681
d 1.008089 19 35 tcp 1500 ------N 26 21.3 35.15 292001 34684
d 1.008089 19 35 tcp 1500 ------N 26 21.3 35.15 294921 34687
d 1.008089 19 35 tcp 1500 ------N 26 21.3 35.15 297841 34690
d 1.00809 19 35 tcp 1500 ------N 26 21.3 35.15 300761 34693
d 1.00809 19 35 tcp 1500 ------N 26 21.3 35.15 303681 34696
d 1.00809 19 35 tcp 1500 ------N 26 21.3 35.15 306601 34699
d 1.00809 19 35 tcp 1500 ------N 26 21.3 35.15 309521 34702
d 1.008091 19 35 tcp 1500 ------N 26 21.3 35.15 312441 34705
d 1.008091 19 35 tcp 1500 ------N 26 21.3 35.15 315361 34708
d 1.008091 19 35 tcp 1500 ------N 26 21.3 35.15 318281 34711
d 1.008092 19 35 tcp 1500 ------N 26 21.3 35.15 321201 34714
d 1.008092 19 35 tcp 1500 ------N 26 21.3 35.15 324121 34717
d 1.008092 19 35 tcp 1500 ------N 26 21.3 35.15 327041 34720
d 1.008093 19 35 tcp 1500 ------N 26 21.3 35.15 329961 34723
d 1.008093 19 35 tcp 1500 ------N 26 21.3 35.15 332881 34726
d 1.008093 19 35 tcp 1500 ------N 26 21.3 35.15 335801 34729
d 1.008093 19 35 tcp 1500 ------N 26 21.3 35.15 338721 34732
d 1.008094 19 35 tcp 1500 ------N 26 21.3 35.15 341641 34735
d 1.008094 19 35 tcp 1500 ------N 26 21.3 35.15 344561 34738
d 1.008094 19 35 tcp 1500 ------N 26 21.3 35.15 347481 34741
d 1.008095 19 35 tcp 1500 ------N 26 21.3 35.15 350401 34744
d 1.008095 19 35 tcp 1500 ------N 26 21.3 35.15 353321 34747
d 1.008095 19 35 tcp 1500 ------N 26 21.3 35.15 356241 34750
d 1.008096 19 35 tcp 1500 ------N 26 21.3 35.15 359161 34753
d 1.008096 19 35 tcp 1500 ------N 26 21.3 35.15 362081 34756
d 1.008096 19 35 tcp 1500 ------N 26 21.3 35.15 365001 34759
d 1.008096 19 35 tcp 1500 ------N 26 21.3 35.15 367921 34762
d 1.008097 19 35 tcp 1500 ------N 26 21.3 35.15 370841 34765
d 1.008127 19 35 tcp 1500 ------N 14 20.5 35.9 1928661 34970
d 1.008138 19 35 tcp 1500 ------N 4 20.0 35.0 202941 35045
d 1.008153 19 35 tcp 1500 ------N 26 21.3 35.15 408801 35140
d 1.008153 19 35 tcp 1500 ------N 26 21.3 35.15 411721 35143
d 1.008153 19 35 tcp 1500 ------N 26 21.3 35.15 414641 35146
d 1.008153 19 35 tcp 1500 ------N 26 21.3 35.15 417561 35149
d 1.008154 19 35 tcp 1500 ------N 26 21.3 35.15 420481 35152
d 1.008154 19 35 tcp 1500 ------N 26 21.3 35.15 423401 35155
d 1.008154 19 35 tcp 1500 ------N 26 21.3 35.15 426321 35158
d 1.008155 19 35 tcp 1500 ------N 26 21.3 35.15 429241 35161
d 1.008155 19 35 tcp 1500 ------N 26 21.3 35.15 432161 35164
d 1.008155 19 35 tcp 1500 ------N 26 21.3 35.15 435081 35167
d 1.008156 19 35 tcp 1500 ------N 26 21.3 35.15 438001 35170
d 1.008156 19 35 tcp 1500 ------N 26 21.3 35.15 440921 35173
d 1.008156 19 35 tcp 1500 ------N 26 21.3 35.15 443841 35176
d 1.008156 19 35 tcp 1500 ------N 26 21.3 35.15 446761 35179
d 1.008157 19 35 tcp 1500 ------N 26 21.3 35.15 449681 35182
d 1.008157 19 35 tcp 1500 ------N 26 21.3 35.15 452601 35185
d 1.008157 19 35 tcp 1500 ------N 26 21.3 35.15 455521 35188
d 1.008158 19 35 tcp 1500 ------N 26 21.3 35.15 458441 35191
d 1.008158 19 35 tcp 1500 ------N 26 21.3 35.15 461361 35194
d 1.008158 19 35 tcp 1500 ------N 26 21.3 35.15 464281 35197
d 1.008159 19 35 tcp 1500 ------N 26 21.3 35.15 467201 35200
d 1.008159 19 35 tcp 1500 ------N 26 21.3 35.15 470121 35203
d 1.008159 19 35 tcp 1500 ------N 26 21.3 35.15 473041 35206
d 1.008159 19 35 tcp 1500 ------N 26 21.3 35.15 475961 35209
d 1.00816 19 35 tcp 1500 ------N 26 21.3 35.15 478881 35212
d 1.00816 19 35 tcp 1500 ------N 26 21.3 35.15 481801 35215
d 1.00816 19 35 tcp 1500 ------N 26 21.3 35.15 484721 35218
d 1.008161 19 35 tcp 1500 ------N 26 21.3 35.15 487641 35221
d 1.008161 19 35 tcp 1500 ------N 26 21.3 35.15 490561 35224
d 1.008161 19 35 tcp 1500 ------N 26 21.3 35.15 493481 35227
d 1.008162 19 35 tcp 1500 ------N 26 21.3 35.15 496401 35230
d 1.008162 19 35 tcp 1500 ------N 26 21.3 35.15 499321 35233
d 1.008162 19 35 tcp 1500 ------N 26 21.3 35.15 502241 35236
d 1.008162 19 35 tcp 1500 ------N 26 21.3 35.15 505161 35239
d 1.008163 19 35 tcp 1500 ------N 26 21.3 35.15 508081 35242
d 1.008163 19 35 tcp 1500 ------N 26 21.3 35.15 511001 35245
d 1.008163 19 35 tcp 1500 ------N 26 21.3 35.15 513921 35248
d 1.008164 19 35 tcp 1500 ------N 26 21.3 35.15 516841 35251
d 1.008164 19 35 tcp 1500 ------N 26 21.3 35.15 519761 35254
d 1.008164 19 35 tcp 1500 ------N 26 21.3 35.15 522681 35257
d 1.008165 19 35 tcp 1500 ------N 26 21.3 35.15 525601 35260
d 1.008165 19 35 tcp 1500 ------N 26 21.3 35.15 528521 35263
d 1.008165 19 35 tcp 1500 ------N 26 21.3 35.15 531441 35266
d 1.008165 19 35 tcp 1500 ------N 26 21.3 35.15 534361 35269
d 1.008166 19 35 tcp 1500 ------N 26 21.3 35.15 537281 35272
d 1.008166 19 35 tcp 1500 ------N 26 21.3 35.15 540201 35275
d 1.008166 19 35 tcp 1500 ------N 26 21.3 35.15 543121 35278
d 1.008167 19 35 tcp 1500 ------N 26 21.3 35.15 546041 35281
d 1.008167 19 35 tcp 1500 ------N 26 21.3 35.15 548961 35284
d 1.008167 19 35 tcp 1500 ------N 26 21.3 35.15 551881 35287
d 1.008168 19 35 tcp 1500 ------N 26 21.3 35.15 554801 35290
d 1.012055 19 35 tcp 1500 ------N 32 21.5 35.18 99281 59362
d 1.012055 19 35 tcp 1500 ------N 32 21.5 35.18 102201 59365
d 1.012056 19 35 tcp 1500 ------N 32 21.5 35.18 105121 59368
d 1.012056 19 35 tcp 1500 ------N 32 21.5 35.18 108041 59371
d 1.012056 19 35 tcp 1500 ------N 32 21.5 35.18 110961 59374
d 1.012057 19 35 tcp 1500 ------N 32 21.5 35.18 113881 59377
d 1.012057 19 35 tcp 1500 ------N 32 21.5 35.18 116801 59380
d 1.012057 19 35 tcp 1500 ------N 32 21.5 35.18 119721 59383
d 1.012057 19 35 tcp 1500 ------N 32 21.5 35.18 122641 59386
d 1.012058 19 35 tcp 1500 ------N 32 21.5 35.18 125561 59389
d 1.012058 19 35 tcp 1500 ------N 32 21.5 35.18 128481 59392
d 1.012058 19 35 tcp 1500 ------N 32 21.5 35.18 131401 59395
d 1.012059 19 35 tcp 1500 ------N 32 21.5 35.18 134321 59398
d 1.012059 19 35 tcp 1500 ------N 32 21.5 35.18 137241 59401
d 1.012059 19 35 tcp 1500 ------N 32 21.5 35.18 140161 59404
d 1.01206 19 35 tcp 1500 ------N 32 21.5 35.18 143081 59407
d 1.01206 19 35 tcp 1500 ------N 32 21.5 35.18 146001 59410
d 1.01206 19 35 tcp 1500 ------N 32 21.5 35.18 148921 59413
d 1.01206 19 35 tcp 1500 ------N 32 21.5 35.18 151841 59416
d 1.012061 19 35 tcp 1500 ------N 32 21.5 35.18 154761 59419
d 1.012061 19 35 tcp 1500 ------N 32 21.5 35.18 157681 59422
d 1.012061 19 35 tcp 1500 ------N 32 21.5 35.18 160601 59425
d 1.012062 19 35 tcp 1500 ------N 32 21.5 35.18 163521 59428
d 1.012062 19 35 tcp 1500 ------N 32 21.5 35.18 166441 59431
d 1.012062 19 35 tcp 1500 ------N 32 21.5 35.18 169361 59434
d 1.012063 19 35 tcp 1500 ------N 32 21.5 35.18 172281 59437
d 1.012063 19 35 tcp 1500 ------N 32 21.5 35.18 175201 59440
d 1.012063 19 35 tcp 1500 ------N 32 21.5 35.18 178121 59443
d 1.012063 19 35 tcp 1500 ------N 32 21.5 35.18 181041 59446
d 1.012064 19 35 tcp 1500 ------N 32 21.5 35.18 183961 59449
d 1.012096 19 35 tcp 1500 ------N 44 23.5 35.24 23361 59668
d 1.012097 19 35 tcp 1500 ------N 44 23.5 35.24 26281 59671
d 1.012097 19 35 tcp 1500 ------N 44 23.5 35.24 29201 59674
d 1.012097 19 35 tcp 1500 ------N 44 23.5 35.24 32121 59677
d 1.012098 19 35 tcp 1500 ------N 44 23.5 35.24 35041 59680
d 1.012098 19 35 tcp 1500 ------N 44 23.5 35.24 37961 59683
d 1.012098 19 35 tcp 1500 ------N 44 23.5 35.24 40881 59686
d 1.012099 19 35 tcp 1500 ------N 44 23.5 35.24 43801 59689
d 1.012134 19 35 tcp 1500 ------N 32 21.5 35.18 186881 59928
d 1.012135 19 35 tcp 1500 ------N 32 21.5 35.18 189801 59931
d 1.012135 19 35 tcp 1500 ------N 32 21.5 35.18 192721 59934
d 1.012135 19 35 tcp 1500 ------N 32 21.5 35.18 195641 59937
d 1.012135 19 35 tcp 1500 ------N 32 21.5 35.18 198561 59940
d 1.022723 19 35 tcp 1500 ------N 68 22.10 35.36 116801 77183
d 1.022723 19 35 tcp 1500 ------N 68 22.10 35.36 119721 77186
d 1.022724 19 35 tcp 1500 ------N 68 22.10 35.36 122641 77189
d 1.022724 19 35 tcp 1500 ------N 68 22.10 35.36 125561 77192
d 1.022724 19 35 tcp 1500 ------N 68 22.10 35.36 128481 77195
d 1.022724 19 35 tcp 1500 ------N 68 22.10 35.36 131401 77198
d 1.022725 19 35 tcp 1500 ------N 68 22.10 35.36 134321 77201
d 1.022725 19 35 tcp 1500 ------N 68 22.10 35.36 137241 77204
d 1.022725 19 35 tcp 1500 ------N 68 22.10 35.36 140161 77207
d 1.022726 19 35 tcp 1500 ------N 68 22.10 35.36 143081 77210
d 1.022726 19 35 tcp 1500 ------N 68 22.10 35.36 146001 77213
d 1.022726 19 35 tcp 1500 ------N 68 22.10 35.36 148921 77216
d 1.022727 19 35 tcp 1500 ------N 68 22.10 35.36 151841 77219
d 1.022727 19 35 tcp 1500 ------N 68 22.10 35.36 154761 77222
d 1.022727 19 35 tcp 1500 ------N 68 22.10 35.36 157681 77225
d 1.022727 19 35 tcp 1500 ------N 68 22.10 35.36 160601 77228
d 1.022728 19 35 tcp 1500 ------N 68 22.10 35.36 163521 77231
d 1.022728 19 35 tcp 1500 ------N 68 22.10 35.36 166441 77234
d 1.022728 19 35 tcp 1500 ------N 68 22.10 35.36 169361 77237
d 1.022729 19 35 tcp 1500 ------N 68 22.10 35.36 172281 77240
d 1.022729 19 35 tcp 1500 ------N 68 22.10 35.36 175201 77243
d 1.022729 19 35 tcp 1500 ------N 68 22.10 35.36 178121 77246
d 1.02273 19 35 tcp 1500 ------N 68 22.10 35.36 181041 77249
d 1.02273 19 35 tcp 1500 ------N 68 22.10 35.36 183961 77252
d 1.022788 19 35 tcp 1500 ------N 72 22.11 35.38 5841 77644
d 1.022799 19 35 tcp 1500 ------N 68 22.10 35.36 186881 77713
d 1.022799 19 35 tcp 1500 ------N 68 22.10 35.36 189801 77716
d 1.022799 19 35 tcp 1500 ------N 68 22.10 35.36 192721 77719
d 1.022799 19 35 tcp 1500 ------N 68 22.10 35.36 195641 77722
d 1.0228 19 35 tcp 1500 ------N 68 22.10 35.36 198561 77725
d 1.0228 19 35 tcp 1500 ------N 68 22.10 35.36 201481 77728
d 1.0228 19 35 tcp 1500 ------N 68 22.10 35.36 204401 77731
d 1.022801 19 35 tcp 1500 ------N 68 22.10 35.36 207321 77734
d 1.022801 19 35 tcp 1500 ------N 68 22.10 35.36 210241 77737
d 1.022801 19 35 tcp 1500 ------N 68 22.10 35.36 213161 77740
d 1.022802 19 35 tcp 1500 ------N 68 22.10 35.36 216081 77743
d 1.022802 19 35 tcp 1500 ------N 68 22.10 35.36 219001 77746
d 1.022802 19 35 tcp 1500 ------N 68 22.10 35.36 221921 77749
d 1.022802 19 35 tcp 1500 ------N 68 22.10 35.36 224841 77752
d 1.022803 19 35 tcp 1500 ------N 68 22.10 35.36 227761 77755
d 1.022803 19 35 tcp 1500 ------N 68 22.10 35.36 230681 77758
d 1.022803 19 35 tcp 1500 ------N 68 22.10 35.36 233601 77761
d 1.023297 19 35 tcp 1500 ------N 68 22.10 35.36 537281 80879
d 1.023333 19 35 tcp 1500 ------N 64 23.10 35.34 1 81118
d 1.026531 19 35 tcp 1500 ------N 90 22.13 35.47 402961 102174
d 1.026531 19 35 tcp 1500 ------N 90 22.13 35.47 405881 102177
d 1.026532 19 35 tcp 1500 ------N 90 22.13 35.47 408801 102180
d 1.026532 19 35 tcp 1500 ------N 90 22.13 35.47 411721 102183
d 1.026532 19 35 tcp 1500 ------N 90 22.13 35.47 414641 102186
d 1.026532 19 35 tcp 1500 ------N 90 22.13 35.47 417561 102189
d 1.026533 19 35 tcp 1500 ------N 90 22.13 35.47 420481 102192
d 1.026533 19 35 tcp 1500 ------N 90 22.13 35.47 423401 102195
d 1.026533 19 35 tcp 1500 ------N 90 22.13 35.47 426321 102198
d 1.026534 19 35 tcp 1500 ------N 90 22.13 35.47 429241 102201
d 1.026534 19 35 tcp 1500 ------N 90 22.13 35.47 432161 102204
d 1.026534 19 35 tcp 1500 ------N 90 22.13 35.47 435081 102207
d 1.026535 19 35 tcp 1500 ------N 90 22.13 35.47 438001 102210
d 1.026535 19 35 tcp 1500 ------N 90 22.13 35.47 440921 102213
d 1.026535 19 35 tcp 1500 ------N 90 22.13 35.47 443841 102216
d 1.026535 19 35 tcp 1500 ------N 90 22.13 35.47 446761 102219
d 1.026536 19 35 tcp 1500 ------N 90 22.13 35.47 449681 102222
d 1.026536 19 35 tcp 1500 ------N 90 22.13 35.47 452601 102225
d 1.026536 19 35 tcp 1500 ------N 90 22.13 35.47 455521 102228
d 1.026537 19 35 tcp 1500 ------N 90 22.13 35.47 458441 102231
d 1.026537 19 35 tcp 1500 ------N 90 22.13 35.47 461361 102234
d 1.026537 19 35 tcp 1500 ------N 90 22.13 35.47 464281 102237
d 1.026538 19 35 tcp 1500 ------N 90 22.13 35.47 467201 102240
d 1.026538 19 35 tcp 1500 ------N 90 22.13 35.47 470121 102243
d 1.026538 19 35 tcp 1500 ------N 90 22.13 35.47 473041 102246
d 1.026538 19 35 tcp 1500 ------N 90 22.13 35.47 475961 102249
d 1.026539 19 35 tcp 1500 ------N 90 22.13 35.47 478881 102252
d 1.026539 19 35 tcp 1500 ------N 90 22.13 35.47 481801 102255
d 1.026539 19 35 tcp 1500 ------N 90 22.13 35.47 484721 102258
d 1.02654 19 35 tcp 1500 ------N 90 22.13 35.47 487641 102261
d 1.02654 19 35 tcp 1500 ------N 90 22.13 35.47 490561 102264
d 1.02654 19 35 tcp 1500 ------N 90 22.13 35.47 493481 102267
d 1.026541 19 35 tcp 1500 ------N 90 22.13 35.47 496401 102270
d 1.028319 19 35 tcp 1500 ------N 100 22.14 35.52 134321 114156
d 1.028319 19 35 tcp 1500 ------N 100 22.14 35.52 137241 114159
d 1.028319 19 35 tcp 1500 ------N 100 22.14 35.52 140161 114162
d 1.02832 19 35 tcp 1500 ------N 100 22.14 35.52 143081 114165
d 1.02832 19 35 tcp 1500 ------N 100 22.14 35.52 146001 114168
d 1.02832 19 35 tcp 1500 ------N 100 22.14 35.52 148921 114171
d 1.028321 19 35 tcp 1500 ------N 100 22.14 35.52 151841 114174
d 1.028321 19 35 tcp 1500 ------N 100 22.14 35.52 154761 114177
d 1.028321 19 35 tcp 1500 ------N 100 22.14 35.52 157681 114180
d 1.028321 19 35 tcp 1500 ------N 100 22.14 35.52 160601 114183
d 1.028322 19 35 tcp 1500 ------N 100 22.14 35.52 163521 114186
d 1.028322 19 35 tcp 1500 ------N 100 22.14 35.52 166441 114189
d 1.028322 19 35 tcp 1500 ------N 100 22.14 35.52 169361 114192
d 1.028323 19 35 tcp 1500 ------N 100 22.14 35.52 172281 114195
d 1.028323 19 35 tcp 1500 ------N 100 22.14 35.52 175201 114198
d 1.028323 19 35 tcp 1500 ------N 100 22.14 35.52 178121 114201
d 1.028324 19 35 tcp 1500 ------N 100 22.14 35.52 181041 114204
d 1.028324 19 35 tcp 1500 ------N 100 22.14 35.52 183961 114207
d 1.028332 19 35 tcp 1500 ------N 96 20.16 35.50 93441 114262
d 1.028332 19 35 tcp 1500 ------N 96 20.16 35.50 96361 114265
d 1.028333 19 35 tcp 1500 ------N 96 20.16 35.50 99281 114268
d 1.028333 19 35 tcp 1500 ------N 96 20.16 35.50 102201 114271
d 1.028333 19 35 tcp 1500 ------N 96 20.16 35.50 105121 114274
d 1.028333 19 35 tcp 1500 ------N 96 20.16 35.50 108041 114277
d 1.028334 19 35 tcp 1500 ------N 96 20.16 35.50 110961 114280
d 1.028334 19 35 tcp 1500 ------N 96 20.16 35.50 113881 114283
d 1.028334 19 35 tcp 1500 ------N 96 20.16 35.50 116801 114286
d 1.028335 19 35 tcp 1500 ------N 96 20.16 35.50 119721 114289
d 1.028335 19 35 tcp 1500 ------N 96 20.16 35.50 122641 114292
d 1.028335 19 35 tcp 1500 ------N 96 20.16 35.50 125561 114295
d 1.028336 19 35 tcp 1500 ------N 96 20.16 35.50 128481 114298
d 1.028336 19 35 tcp 1500 ------N 96 20.16 35.50 131401 114301
d 1.028336 19 35 tcp 1500 ------N 96 20.16 35.50 134321 114304
d 1.028336 19 35 tcp 1500 ------N 96 20.16 35.50 137241 114307
d 1.028337 19 35 tcp 1500 ------N 96 20.16 35.50 140161 114310
d 1.028337 19 35 tcp 1500 ------N 96 20.16 35.50 143081 114313
d 1.028337 19 35 tcp 1500 ------N 96 20.16 35.50 146001 114316
d 1.028338 19 35 tcp 1500 ------N 96 20.16 35.50 148921 114319
d 1.028338 19 35 tcp 1500 ------N 96 20.16 35.50 151841 114322
d 1.028338 19 35 tcp 1500 ------N 96 20.16 35.50 154761 114325
d 1.028339 19 35 tcp 1500 ------N 96 20.16 35.50 157681 114328
d 1.028339 19 35 tcp 1500 ------N 96 20.16 35.50 160601 114331
d 1.028339 19 35 tcp 1500 ------N 96 20.16 35.50 163521 114334
d 1.028339 19 35 tcp 1500 ------N 96 20.16 35.50 166441 114337
d 1.02834 19 35 tcp 1500 ------N 96 20.16 35.50 169361 114340
d 1.02834 19 35 tcp 1500 ------N 96 20.16 35.50 172281 114343
d 1.02834 19 35 tcp 1500 ------N 96 20.16 35.50 175201 114346
d 1.028341 19 35 tcp 1500 ------N 96 20.16 35.50 178121 114349
d 1.028341 19 35 tcp 1500 ------N 96 20.16 35.50 181041 114352
d 1.028341 19 35 tcp 1500 ------N 96 20.16 35.50 183961 114355
d 1.028379 19 35 tcp 1500 ------N 64 23.10 35.34 335801 114606
d 1.028391 19 35 tcp 1500 ------N 100 22.14 35.52 192721 114694
d 1.028392 19 35 tcp 1500 ------N 100 22.14 35.52 195641 114697
d 1.028392 19 35 tcp 1500 ------N 100 22.14 35.52 198561 114700
d 1.028392 19 35 tcp 1500 ------N 100 22.14 35.52 201481 114703
d 1.028393 19 35 tcp 1500 ------N 100 22.14 35.52 204401 114706
d 1.028393 19 35 tcp 1500 ------N 100 22.14 35.52 207321 114709
d 1.028393 19 35 tcp 1500 ------N 100 22.14 35.52 210241 114712
d 1.028393 19 35 tcp 1500 ------N 100 22.14 35.52 213161 114715
d 1.028394 19 35 tcp 1500 ------N 100 22.14 35.52 216081 114718
d 1.028394 19 35 tcp 1500 ------N 100 22.14 35.52 219001 114721
d 1.028394 19 35 tcp 1500 ------N 100 22.14 35.52 221921 114724
d 1.028395 19 35 tcp 1500 ------N 100 22.14 35.52 224841 114727
d 1.028395 19 35 tcp 1500 ------N 100 22.14 35.52 227761 114730
d 1.028395 19 35 tcp 1500 ------N 100 22.14 35.52 230681 114733
d 1.028396 19 35 tcp 1500 ------N 100 22.14 35.52 233601 114736
d 1.028396 19 35 tcp 1500 ------N 100 22.14 35.52 236521 114739
d 1.028396 19 35 tcp 1500 ------N 100 22.14 35.52 239441 114742
d 1.028396 19 35 tcp 1500 ------N 100 22.14 35.52 242361 114745
d 1.028397 19 35 tcp 1500 ------N 100 22.14 35.52 245281 114748
d 1.028397 19 35 tcp 1500 ------N 100 22.14 35.52 248201 114751
d 1.028397 19 35 tcp 1500 ------N 100 22.14 35.52 251121 114754
d 1.028398 19 35 tcp 1500 ------N 100 22.14 35.52 254041 114757
d 1.028398 19 35 tcp 1500 ------N 100 22.14 35.52 256961 114760
d 1.028398 19 35 tcp 1500 ------N 100 22.14 35.52 259881 114763
d 1.028399 19 35 tcp 1500 ------N 100 22.14 35.52 262801 114766
d 1.028399 19 35 tcp 1500 ------N 100 22.14 35.52 265721 114769
d 1.028399 19 35 tcp 1500 ------N 100 22.14 35.52 268641 114772
d 1.030741 19 35 tcp 1500 ------N 84 21.12 35.44 29201 130425
d 1.030741 19 35 tcp 1500 ------N 84 21.12 35.44 32121 130428
d 1.030742 19 35 tcp 1500 ------N 84 21.12 35.44 35041 130431
d 1.030742 19 35 tcp 1500 ------N 84 21.12 35.44 37961 130434
d 1.030742 19 35 tcp 1500 ------N 84 21.12 35.44 40881 130437
d 1.030743 19 35 tcp 1500 ------N 84 21.12 35.44 43801 130440
d 1.030775 19 35 tcp 1500 ------N 108 22.16 35.56 93441 130657
d 1.030775 19 35 tcp 1500 ------N 108 22.16 35.56 96361 130660
d 1.030776 19 35 tcp 1500 ------N 108 22.16 35.56 99281 130663
d 1.030776 19 35 tcp 1500 ------N 108 22.16 35.56 102201 130666
d 1.030776 19 35 tcp 1500 ------N 108 22.16 35.56 105121 130669
d 1.030777 19 35 tcp 1500 ------N 108 22.16 35.56 108041 130672
d 1.030777 19 35 tcp 1500 ------N 108 22.16 35.56 110961 130675
d 1.030777 19 35 tcp 1500 ------N 108 22.16 35.56 113881 130678
d 1.030777 19 35 tcp 1500 ------N 108 22.16 35.56 116801 130681
d 1.030778 19 35 tcp 1500 ------N 108 22.16 35.56 119721 130684
d 1.030778 19 35 tcp 1500 ------N 108 22.16 35.56 122641 130687
d 1.030778 19 35 tcp 1500 ------N 108 22.16 35.56 125561 130690
d 1.030779 19 35 tcp 1500 ------N 108 22.16 35.56 128481 130693
d 1.030779 19 35 tcp 1500 ------N 108 22.16 35.56 131401 130696
d 1.030779 19 35 tcp 1500 ------N 108 22.16 35.56 134321 130699
d 1.03078 19 35 tcp 1500 ------N 108 22.16 35.56 137241 130702
d 1.03078 19 35 tcp 1500 ------N 108 22.16 35.56 140161 130705
d 1.03078 19 35 tcp 1500 ------N 108 22.16 35.56 143081 130708
d 1.03078 19 35 tcp 1500 ------N 108 22.16 35.56 146001 130711
d 1.030781 19 35 tcp 1500 ------N 108 22.16 35.56 148921 130714
d 1.030781 19 35 tcp 1500 ------N 108 22.16 35.56 151841 130717
d 1.030781 19 35 tcp 1500 ------N 108 22.16 35.56 154761 130720
d 1.030782 19 35 tcp 1500 ------N 108 22.16 35.56 157681 130723
d 1.030782 19 35 tcp 1500 ------N 108 22.16 35.56 160601 130726
d 1.030782 19 35 tcp 1500 ------N 108 22.16 35.56 163521 130729
d 1.030783 19 35 tcp 1500 ------N 108 22.16 35.56 166441 130732
d 1.030783 19 35 tcp 1500 ------N 108 22.16 35.56 169361 130735
d 1.030783 19 35 tcp 1500 ------N 108 22.16 35.56 172281 130738
d 1.030783 19 35 tcp 1500 ------N 108 22.16 35.56 175201 130741
d 1.030784 19 35 tcp 1500 ------N 108 22.16 35.56 178121 130744
d 1.030784 19 35 tcp 1500 ------N 108 22.16 35.56 181041 130747
d 1.030784 19 35 tcp 1500 ------N 108 22.16 35.56 183961 130750
d 1.03082 19 35 tcp 1500 ------N 84 21.12 35.44 46721 130991
d 1.030821 19 35 tcp 1500 ------N 84 21.12 35.44 49641 130994
d 1.030821 19 35 tcp 1500 ------N 84 21.12 35.44 52561 130997
d 1.030821 19 35 tcp 1500 ------N 84 21.12 35.44 55481 131000