d 1.003224 19 35 tcp 1500 ------N 7 23.0 35.3 243821 2018
d 1.003224 19 35 tcp 1500 ------N 7 23.0 35.3 245281 2019
d 1.003224 19 35 tcp 1500 ------N 7 23.0 35.3 248201 2022
d 1.003224 19 35 tcp 1500 ------N 7 23.0 35.3 249661 2025
d 1.003224 19 35 tcp 1500 ------N 7 23.0 35.3 251121 2026
d 1.003225 19 35 tcp 1500 ------N 7 23.0 35.3 258421 2034
d 1.003225 19 35 tcp 1500 ------N 7 23.0 35.3 259881 2035
d 1.003226 19 35 tcp 1500 ------N 7 23.0 35.3 262801 2038
d 1.003226 19 35 tcp 1500 ------N 7 23.0 35.3 264261 2040
d 1.003226 19 35 tcp 1500 ------N 7 23.0 35.3 265721 2041
d 1.003227 19 35 tcp 1500 ------N 7 23.0 35.3 273021 2049
d 1.003227 19 35 tcp 1500 ------N 7 23.0 35.3 274481 2050
d 1.003227 19 35 tcp 1500 ------N 7 23.0 35.3 277401 2053
d 1.003227 19 35 tcp 1500 ------N 7 23.0 35.3 278861 2055
d 1.003227 19 35 tcp 1500 ------N 7 23.0 35.3 280321 2056
d 1.003228 19 35 tcp 1500 ------N 7 23.0 35.3 287621 2064
d 1.003228 19 35 tcp 1500 ------N 7 23.0 35.3 289081 2065
d 1.003229 19 35 tcp 1500 ------N 7 23.0 35.3 292001 2068
d 1.003229 19 35 tcp 1500 ------N 7 23.0 35.3 293461 2070
d 1.003229 19 35 tcp 1500 ------N 7 23.0 35.3 294921 2071
d 1.00323 19 35 tcp 1500 ------N 7 23.0 35.3 302221 2079
d 1.00323 19 35 tcp 1500 ------N 7 23.0 35.3 303681 2080
d 1.00323 19 35 tcp 1500 ------N 7 23.0 35.3 306601 2083
d 1.00323 19 35 tcp 1500 ------N 7 23.0 35.3 308061 2085
d 1.00323 19 35 tcp 1500 ------N 7 23.0 35.3 309521 2086
d 1.003231 19 35 tcp 1500 ------N 7 23.0 35.3 315361 2094
d 1.003231 19 35 tcp 1500 ------N 7 23.0 35.3 318281 2097
d 1.003231 19 35 tcp 1500 ------N 7 23.0 35.3 319741 2099
d 1.003232 19 35 tcp 1500 ------N 7 23.0 35.3 321201 2100
d 1.003232 19 35 tcp 1500 ------N 7 23.0 35.3 324121 2103
d 1.003234 19 35 tcp 1500 ------N 7 23.0 35.3 332881 2121
d 1.003234 19 35 tcp 1500 ------N 7 23.0 35.3 334341 2123
d 1.003234 19 35 tcp 1500 ------N 7 23.0 35.3 335801 2124
d 1.003235 19 35 tcp 1500 ------N 7 23.0 35.3 338721 2130
d 1.003236 19 35 tcp 1500 ------N 7 23.0 35.3 343101 2144
d 1.003236 19 35 tcp 1500 ------N 7 23.0 35.3 344561 2145
d 1.003237 19 35 tcp 1500 ------N 7 23.0 35.3 347481 2151
d 1.003237 19 35 tcp 1500 ------N 7 23.0 35.3 348941 2153
d 1.003237 19 35 tcp 1500 ------N 7 23.0 35.3 350401 2154
d 1.003237 19 35 tcp 1500 ------N 7 23.0 35.3 353321 2157
d 1.003237 19 35 tcp 1500 ------N 7 23.0 35.3 354781 2159
d 1.003238 19 35 tcp 1500 ------N 7 23.0 35.3 356241 2160
d 1.003238 19 35 tcp 1500 ------N 7 23.0 35.3 357701 2162
d 1.003238 19 35 tcp 1500 ------N 7 23.0 35.3 359161 2163
d 1.003238 19 35 tcp 1500 ------N 7 23.0 35.3 362081 2166
d 1.003238 19 35 tcp 1500 ------N 7 23.0 35.3 365001 2169
d 1.003239 19 35 tcp 1500 ------N 7 23.0 35.3 367921 2172
d 1.003239 19 35 tcp 1500 ------N 7 23.0 35.3 369381 2174
d 1.003239 19 35 tcp 1500 ------N 7 23.0 35.3 370841 2175
d 1.003239 19 35 tcp 1500 ------N 7 23.0 35.3 373761 2178
d 1.00324 19 35 tcp 1500 ------N 7 23.0 35.3 375221 2180
d 1.00324 19 35 tcp 1500 ------N 7 23.0 35.3 376681 2181
d 1.00324 19 35 tcp 1500 ------N 7 23.0 35.3 378141 2183
d 1.00324 19 35 tcp 1500 ------N 7 23.0 35.3 379601 2184
d 1.00324 19 35 tcp 1500 ------N 7 23.0 35.3 382521 2187
d 1.00324 19 35 tcp 1500 ------N 7 23.0 35.3 383981 2189
d 1.003241 19 35 tcp 1500 ------N 7 23.0 35.3 385441 2190
d 1.003241 19 35 tcp 1500 ------N 7 23.0 35.3 386901 2192
d 1.003241 19 35 tcp 1500 ------N 7 23.0 35.3 388361 2193
d 1.003241 19 35 tcp 1500 ------N 7 23.0 35.3 391281 2196
d 1.003241 19 35 tcp 1500 ------N 7 23.0 35.3 394201 2199
d 1.003242 19 35 tcp 1500 ------N 7 23.0 35.3 397121 2202
d 1.003242 19 35 tcp 1500 ------N 7 23.0 35.3 400041 2205
d 1.003242 19 35 tcp 1500 ------N 7 23.0 35.3 401501 2207
d 1.003242 19 35 tcp 1500 ------N 7 23.0 35.3 402961 2208
d 1.003243 19 35 tcp 1500 ------N 7 23.0 35.3 405881 2211
d 1.003243 19 35 tcp 1500 ------N 7 23.0 35.3 407341 2213
d 1.003243 19 35 tcp 1500 ------N 7 23.0 35.3 408801 2214
d 1.003244 19 35 tcp 1500 ------N 7 23.0 35.3 417561 2226
d 1.003244 19 35 tcp 1500 ------N 7 23.0 35.3 419021 2228
d 1.003244 19 35 tcp 1500 ------N 7 23.0 35.3 420481 2229
d 1.003245 19 35 tcp 1500 ------N 7 23.0 35.3 421941 2231
d 1.003245 19 35 tcp 1500 ------N 7 23.0 35.3 423401 2232
d 1.003245 19 35 tcp 1500 ------N 7 23.0 35.3 426321 2235
d 1.003247 19 35 tcp 1500 ------N 7 23.0 35.3 435081 2256
d 1.003248 19 35 tcp 1500 ------N 7 23.0 35.3 440921 2268
d 1.003249 19 35 tcp 1500 ------N 7 23.0 35.3 442381 2273
d 1.003249 19 35 tcp 1500 ------N 7 23.0 35.3 443841 2274
d 1.003249 19 35 tcp 1500 ------N 7 23.0 35.3 446761 2277
d 1.00325 19 35 tcp 1500 ------N 7 23.0 35.3 448221 2282
d 1.00325 19 35 tcp 1500 ------N 7 23.0 35.3 449681 2283
d 1.00325 19 35 tcp 1500 ------N 7 23.0 35.3 452601 2286
d 1.003252 19 35 tcp 1500 ------N 7 23.0 35.3 459901 2306
d 1.003252 19 35 tcp 1500 ------N 7 23.0 35.3 461361 2307
d 1.003253 19 35 tcp 1500 ------N 7 23.0 35.3 464281 2313
d 1.003253 19 35 tcp 1500 ------N 7 23.0 35.3 467201 2316
d 1.003254 19 35 tcp 1500 ------N 7 23.0 35.3 470121 2322
d 1.003255 19 35 tcp 1500 ------N 7 23.0 35.3 473041 2331
d 1.003255 19 35 tcp 1500 ------N 7 23.0 35.3 475961 2334
d 1.003255 19 35 tcp 1500 ------N 7 23.0 35.3 477421 2336
d 1.003255 19 35 tcp 1500 ------N 7 23.0 35.3 478881 2337
d 1.003256 19 35 tcp 1500 ------N 7 23.0 35.3 481801 2340
d 1.003256 19 35 tcp 1500 ------N 7 23.0 35.3 483261 2342
d 1.003256 19 35 tcp 1500 ------N 7 23.0 35.3 484721 2343
d 1.003256 19 35 tcp 1500 ------N 7 23.0 35.3 487641 2346
d 1.003282 19 35 tcp 1500 ------N 6 22.0 35.2 198561 2522
d 1.003283 19 35 tcp 1500 ------N 6 22.0 35.2 201481 2525
d 1.003283 19 35 tcp 1500 ------N 6 22.0 35.2 202941 2527
d 1.003283 19 35 tcp 1500 ------N 6 22.0 35.2 204401 2528
d 1.003285 19 35 tcp 1500 ------N 6 22.0 35.2 211701 2543
d 1.003285 19 35 tcp 1500 ------N 6 22.0 35.2 213161 2544
d 1.003285 19 35 tcp 1500 ------N 6 22.0 35.2 214621 2546
d 1.003286 19 35 tcp 1500 ------N 6 22.0 35.2 216081 2547
d 1.003286 19 35 tcp 1500 ------N 6 22.0 35.2 219001 2553
d 1.00329 19 35 tcp 1500 ------N 6 22.0 35.2 226301 2578
d 1.00329 19 35 tcp 1500 ------N 6 22.0 35.2 227761 2579
d 1.00329 19 35 tcp 1500 ------N 6 22.0 35.2 230681 2582
d 1.003291 19 35 tcp 1500 ------N 6 22.0 35.2 232141 2587
d 1.003291 19 35 tcp 1500 ------N 6 22.0 35.2 233601 2588
d 1.003293 19 35 tcp 1500 ------N 6 22.0 35.2 239441 2605
d 1.003294 19 35 tcp 1500 ------N 6 22.0 35.2 242361 2608
d 1.003294 19 35 tcp 1500 ------N 6 22.0 35.2 243821 2610
d 1.003294 19 35 tcp 1500 ------N 6 22.0 35.2 245281 2611
d 1.003294 19 35 tcp 1500 ------N 6 22.0 35.2 246741 2613
d 1.003294 19 35 tcp 1500 ------N 6 22.0 35.2 248201 2614
d 1.003297 19 35 tcp 1500 ------N 6 22.0 35.2 256961 2628
d 1.003297 19 35 tcp 1500 ------N 6 22.0 35.2 259881 2631
d 1.003297 19 35 tcp 1500 ------N 6 22.0 35.2 261341 2633
d 1.003297 19 35 tcp 1500 ------N 6 22.0 35.2 262801 2634
d 1.0033 19 35 tcp 1500 ------N 6 22.0 35.2 271561 2654
d 1.0033 19 35 tcp 1500 ------N 6 22.0 35.2 273021 2656
d 1.003301 19 35 tcp 1500 ------N 6 22.0 35.2 274481 2657
d 1.003305 19 35 tcp 1500 ------N 6 22.0 35.2 289081 2692
d 1.003306 19 35 tcp 1500 ------N 6 22.0 35.2 290541 2697
d 1.003306 19 35 tcp 1500 ------N 6 22.0 35.2 292001 2698
d 1.003306 19 35 tcp 1500 ------N 6 22.0 35.2 294921 2701
d 1.003306 19 35 tcp 1500 ------N 6 22.0 35.2 296381 2706
d 1.003307 19 35 tcp 1500 ------N 6 22.0 35.2 297841 2707
d 1.003307 19 35 tcp 1500 ------N 6 22.0 35.2 300761 2710
d 1.003308 19 35 tcp 1500 ------N 6 22.0 35.2 305141 2718
d 1.003308 19 35 tcp 1500 ------N 6 22.0 35.2 306601 2719
d 1.00331 19 35 tcp 1500 ------N 6 22.0 35.2 312441 2740
d 1.003311 19 35 tcp 1500 ------N 6 22.0 35.2 318281 2752
d 1.003311 19 35 tcp 1500 ------N 6 22.0 35.2 321201 2755
d 1.003312 19 35 tcp 1500 ------N 6 22.0 35.2 322661 2757
d 1.003312 19 35 tcp 1500 ------N 6 22.0 35.2 324121 2758
d 1.003312 19 35 tcp 1500 ------N 6 22.0 35.2 327041 2761
d 1.003312 19 35 tcp 1500 ------N 6 22.0 35.2 328501 2763
d 1.003312 19 35 tcp 1500 ------N 6 22.0 35.2 329961 2764
d 1.003313 19 35 tcp 1500 ------N 6 22.0 35.2 332881 2770
d 1.003313 19 35 tcp 1500 ------N 6 22.0 35.2 335801 2773
d 1.003314 19 35 tcp 1500 ------N 6 22.0 35.2 338721 2785
d 1.003315 19 35 tcp 1500 ------N 6 22.0 35.2 341641 2791
d 1.003315 19 35 tcp 1500 ------N 6 22.0 35.2 343101 2793
d 1.003315 19 35 tcp 1500 ------N 6 22.0 35.2 344561 2794
d 1.003316 19 35 tcp 1500 ------N 6 22.0 35.2 347481 2800
d 1.003316 19 35 tcp 1500 ------N 6 22.0 35.2 348941 2802
d 1.003316 19 35 tcp 1500 ------N 6 22.0 35.2 350401 2803
d 1.003318 19 35 tcp 1500 ------N 6 22.0 35.2 356241 2821
d 1.003318 19 35 tcp 1500 ------N 6 22.0 35.2 357701 2823
d 1.003318 19 35 tcp 1500 ------N 6 22.0 35.2 359161 2824
d 1.003319 19 35 tcp 1500 ------N 6 22.0 35.2 362081 2830
d 1.003319 19 35 tcp 1500 ------N 6 22.0 35.2 365001 2833
d 1.003321 19 35 tcp 1500 ------N 6 22.0 35.2 370841 2851
d 1.003321 19 35 tcp 1500 ------N 6 22.0 35.2 372301 2853
d 1.003321 19 35 tcp 1500 ------N 6 22.0 35.2 373761 2854
d 1.003322 19 35 tcp 1500 ------N 6 22.0 35.2 376681 2860
d 1.003322 19 35 tcp 1500 ------N 6 22.0 35.2 379601 2863
d 1.003324 19 35 tcp 1500 ------N 6 22.0 35.2 383981 2877
d 1.003324 19 35 tcp 1500 ------N 6 22.0 35.2 385441 2878
d 1.003324 19 35 tcp 1500 ------N 6 22.0 35.2 388361 2881
d 1.003324 19 35 tcp 1500 ------N 6 22.0 35.2 389821 2883
d 1.003324 19 35 tcp 1500 ------N 6 22.0 35.2 391281 2884
d 1.003325 19 35 tcp 1500 ------N 6 22.0 35.2 394201 2887
d 1.003336 19 35 tcp 1500 ------N 5 21.0 35.1 198561 2977
d 1.003338 19 35 tcp 1500 ------N 5 21.0 35.1 204401 2988
d 1.003339 19 35 tcp 1500 ------N 5 21.0 35.1 207321 2991
d 1.003339 19 35 tcp 1500 ------N 5 21.0 35.1 208781 2993
d 1.003339 19 35 tcp 1500 ------N 5 21.0 35.1 210241 2994
d 1.003339 19 35 tcp 1500 ------N 5 21.0 35.1 213161 2997
d 1.003339 19 35 tcp 1500 ------N 5 21.0 35.1 214621 2999
d 1.00334 19 35 tcp 1500 ------N 5 21.0 35.1 216081 3000
d 1.00334 19 35 tcp 1500 ------N 5 21.0 35.1 219001 3004
d 1.003342 19 35 tcp 1500 ------N 5 21.0 35.1 224841 3018
d 1.003343 19 35 tcp 1500 ------N 5 21.0 35.1 227761 3025
d 1.003347 19 35 tcp 1500 ------N 5 21.0 35.1 235061 3051
d 1.003347 19 35 tcp 1500 ------N 5 21.0 35.1 236521 3052
d 1.003347 19 35 tcp 1500 ------N 5 21.0 35.1 239441 3058
d 1.003348 19 35 tcp 1500 ------N 5 21.0 35.1 240901 3060
d 1.003348 19 35 tcp 1500 ------N 5 21.0 35.1 242361 3061
d 1.00335 19 35 tcp 1500 ------N 5 21.0 35.1 248201 3072
d 1.00335 19 35 tcp 1500 ------N 5 21.0 35.1 249661 3074
d 1.00335 19 35 tcp 1500 ------N 5 21.0 35.1 251121 3075
d 1.00335 19 35 tcp 1500 ------N 5 21.0 35.1 252581 3077
d 1.00335 19 35 tcp 1500 ------N 5 21.0 35.1 254041 3078
d 1.003351 19 35 tcp 1500 ------N 5 21.0 35.1 255501 3080
d 1.003351 19 35 tcp 1500 ------N 5 21.0 35.1 256961 3081
d 1.003353 19 35 tcp 1500 ------N 5 21.0 35.1 261341 3091
d 1.003353 19 35 tcp 1500 ------N 5 21.0 35.1 262801 3092
d 1.003353 19 35 tcp 1500 ------N 5 21.0 35.1 265721 3095
d 1.003353 19 35 tcp 1500 ------N 5 21.0 35.1 267181 3097
d 1.003353 19 35 tcp 1500 ------N 5 21.0 35.1 268641 3098
d 1.003354 19 35 tcp 1500 ------N 5 21.0 35.1 271561 3101
d 1.003356 19 35 tcp 1500 ------N 5 21.0 35.1 275941 3117
d 1.003356 19 35 tcp 1500 ------N 5 21.0 35.1 277401 3118
d 1.003357 19 35 tcp 1500 ------N 5 21.0 35.1 280321 3124
d 1.003357 19 35 tcp 1500 ------N 5 21.0 35.1 281781 3126
d 1.003357 19 35 tcp 1500 ------N 5 21.0 35.1 283241 3127
d 1.003358 19 35 tcp 1500 ------N 5 21.0 35.1 286161 3133
d 1.003361 19 35 tcp 1500 ------N 5 21.0 35.1 292001 3153
d 1.003362 19 35 tcp 1500 ------N 5 21.0 35.1 294921 3159
d 1.003362 19 35 tcp 1500 ------N 5 21.0 35.1 296381 3161
d 1.003362 19 35 tcp 1500 ------N 5 21.0 35.1 297841 3162
d 1.003362 19 35 tcp 1500 ------N 5 21.0 35.1 300761 3168
d 1.003365 19 35 tcp 1500 ------N 5 21.0 35.1 306601 3179
d 1.003365 19 35 tcp 1500 ------N 5 21.0 35.1 308061 3181
d 1.003365 19 35 tcp 1500 ------N 5 21.0 35.1 309521 3182
d 1.003365 19 35 tcp 1500 ------N 5 21.0 35.1 310981 3184
d 1.003365 19 35 tcp 1500 ------N 5 21.0 35.1 312441 3185
d 1.003365 19 35 tcp 1500 ------N 5 21.0 35.1 313901 3187
d 1.003365 19 35 tcp 1500 ------N 5 21.0 35.1 315361 3188
d 1.00337 19 35 tcp 1500 ------N 5 21.0 35.1 327041 3220
d 1.00337 19 35 tcp 1500 ------N 5 21.0 35.1 328501 3222
d 1.00337 19 35 tcp 1500 ------N 5 21.0 35.1 329961 3223
d 1.003374 19 35 tcp 1500 ------N 5 21.0 35.1 341641 3255
d 1.003374 19 35 tcp 1500 ------N 5 21.0 35.1 344561 3258
d 1.003378 19 35 tcp 1500 ------N 5 21.0 35.1 354781 3290
d 1.003379 19 35 tcp 1500 ------N 5 21.0 35.1 356241 3291
d 1.003379 19 35 tcp 1500 ------N 5 21.0 35.1 359161 3294
d 1.003382 19 35 tcp 1500 ------N 5 21.0 35.1 367921 3324
d 1.003383 19 35 tcp 1500 ------N 5 21.0 35.1 370841 3330
d 1.003383 19 35 tcp 1500 ------N 5 21.0 35.1 373761 3336
d 1.003384 19 35 tcp 1500 ------N 5 21.0 35.1 376681 3342
d 1.003384 19 35 tcp 1500 ------N 5 21.0 35.1 378141 3344
d 1.003384 19 35 tcp 1500 ------N 5 21.0 35.1 379601 3345
d 1.003384 19 35 tcp 1500 ------N 5 21.0 35.1 382521 3348
d 1.003384 19 35 tcp 1500 ------N 5 21.0 35.1 383981 3350
d 1.003385 19 35 tcp 1500 ------N 5 21.0 35.1 385441 3351
d 1.003385 19 35 tcp 1500 ------N 5 21.0 35.1 388361 3354
d 1.003387 19 35 tcp 1500 ------N 5 21.0 35.1 394201 3375
d 1.003387 19 35 tcp 1500 ------N 5 21.0 35.1 397121 3378
d 1.003398 19 35 tcp 1500 ------N 4 20.0 35.0 210241 3453
d 1.003398 19 35 tcp 1500 ------N 4 20.0 35.0 211701 3455
d 1.003398 19 35 tcp 1500 ------N 4 20.0 35.0 213161 3456
d 1.003399 19 35 tcp 1500 ------N 4 20.0 35.0 216081 3459
d 1.003401 19 35 tcp 1500 ------N 4 20.0 35.0 221921 3470
d 1.003401 19 35 tcp 1500 ------N 4 20.0 35.0 224841 3473
d 1.003401 19 35 tcp 1500 ------N 4 20.0 35.0 226301 3475
d 1.003401 19 35 tcp 1500 ------N 4 20.0 35.0 227761 3476
d 1.003402 19 35 tcp 1500 ------N 4 20.0 35.0 230681 3479
d 1.003404 19 35 tcp 1500 ------N 4 20.0 35.0 236521 3490
d 1.003404 19 35 tcp 1500 ------N 4 20.0 35.0 239441 3493
d 1.003404 19 35 tcp 1500 ------N 4 20.0 35.0 240901 3495
d 1.003404 19 35 tcp 1500 ------N 4 20.0 35.0 242361 3496
d 1.003405 19 35 tcp 1500 ------N 4 20.0 35.0 245281 3499
d 1.003407 19 35 tcp 1500 ------N 4 20.0 35.0 251121 3510
d 1.003407 19 35 tcp 1500 ------N 4 20.0 35.0 254041 3513
d 1.003407 19 35 tcp 1500 ------N 4 20.0 35.0 255501 3515
d 1.003407 19 35 tcp 1500 ------N 4 20.0 35.0 256961 3516
d 1.003408 19 35 tcp 1500 ------N 4 20.0 35.0 259881 3519
d 1.00341 19 35 tcp 1500 ------N 4 20.0 35.0 265721 3536
d 1.003411 19 35 tcp 1500 ------N 4 20.0 35.0 267181 3538
d 1.003411 19 35 tcp 1500 ------N 4 20.0 35.0 268641 3539
d 1.003411 19 35 tcp 1500 ------N 4 20.0 35.0 271561 3542
d 1.003411 19 35 tcp 1500 ------N 4 20.0 35.0 273021 3544
d 1.003411 19 35 tcp 1500 ------N 4 20.0 35.0 274481 3545
d 1.003412 19 35 tcp 1500 ------N 4 20.0 35.0 277401 3549
d 1.003413 19 35 tcp 1500 ------N 4 20.0 35.0 280321 3553
d 1.003413 19 35 tcp 1500 ------N 4 20.0 35.0 283241 3557
d 1.003414 19 35 tcp 1500 ------N 4 20.0 35.0 286161 3561
d 1.003414 19 35 tcp 1500 ------N 4 20.0 35.0 289081 3565
d 1.003416 19 35 tcp 1500 ------N 4 20.0 35.0 294921 3576
d 1.003417 19 35 tcp 1500 ------N 4 20.0 35.0 297841 3579
d 1.003417 19 35 tcp 1500 ------N 4 20.0 35.0 299301 3581
d 1.003417 19 35 tcp 1500 ------N 4 20.0 35.0 300761 3582
d 1.003417 19 35 tcp 1500 ------N 4 20.0 35.0 303681 3585
d 1.003419 19 35 tcp 1500 ------N 4 20.0 35.0 309521 3596
d 1.00342 19 35 tcp 1500 ------N 4 20.0 35.0 312441 3599
d 1.00342 19 35 tcp 1500 ------N 4 20.0 35.0 313901 3601
d 1.00342 19 35 tcp 1500 ------N 4 20.0 35.0 315361 3602
d 1.00342 19 35 tcp 1500 ------N 4 20.0 35.0 318281 3605
d 1.003423 19 35 tcp 1500 ------N 4 20.0 35.0 329961 3622
d 1.003423 19 35 tcp 1500 ------N 4 20.0 35.0 332881 3625
d 1.003427 19 35 tcp 1500 ------N 4 20.0 35.0 347481 3654
d 1.00343 19 35 tcp 1500 ------N 4 20.0 35.0 356241 3671
d 1.00343 19 35 tcp 1500 ------N 4 20.0 35.0 359161 3674
d 1.003433 19 35 tcp 1500 ------N 4 20.0 35.0 372301 3695
d 1.003433 19 35 tcp 1500 ------N 4 20.0 35.0 373761 3696
d 1.003433 19 35 tcp 1500 ------N 4 20.0 35.0 376681 3699
d 1.003433 19 35 tcp 1500 ------N 4 20.0 35.0 378141 3701
d 1.003434 19 35 tcp 1500 ------N 4 20.0 35.0 379601 3702
d 1.003434 19 35 tcp 1500 ------N 4 20.0 35.0 382521 3705
d 1.003434 19 35 tcp 1500 ------N 4 20.0 35.0 383981 3707
d 1.003434 19 35 tcp 1500 ------N 4 20.0 35.0 385441 3708
d 1.003435 19 35 tcp 1500 ------N 4 20.0 35.0 391281 3714
d 1.003435 19 35 tcp 1500 ------N 4 20.0 35.0 394201 3717
d 1.003435 19 35 tcp 1500 ------N 4 20.0 35.0 395661 3719
d 1.003435 19 35 tcp 1500 ------N 4 20.0 35.0 397121 3720
d 1.003436 19 35 tcp 1500 ------N 4 20.0 35.0 400041 3723
d 1.003436 19 35 tcp 1500 ------N 4 20.0 35.0 405881 3729
d 1.003437 19 35 tcp 1500 ------N 4 20.0 35.0 408801 3732
d 1.003437 19 35 tcp 1500 ------N 4 20.0 35.0 410261 3734
d 1.003437 19 35 tcp 1500 ------N 4 20.0 35.0 411721 3735
d 1.003437 19 35 tcp 1500 ------N 4 20.0 35.0 414641 3738
d 1.003438 19 35 tcp 1500 ------N 4 20.0 35.0 420481 3744
d 1.003487 19 35 tcp 1500 ------N 6 22.0 35.2 496401 4088
d 1.00349 19 35 tcp 1500 ------N 6 22.0 35.2 503701 4110
d 1.003498 19 35 tcp 1500 ------N 6 22.0 35.2 518301 4181
d 1.0035 19 35 tcp 1500 ------N 6 22.0 35.2 522681 4199
d 1.003501 19 35 tcp 1500 ------N 6 22.0 35.2 525601 4203
d 1.003501 19 35 tcp 1500 ------N 6 22.0 35.2 527061 4205
d 1.003513 19 35 tcp 1500 ------N 6 22.0 35.2 548961 4313
d 1.003519 19 35 tcp 1500 ------N 5 21.0 35.1 484721 4362
d 1.003519 19 35 tcp 1500 ------N 5 21.0 35.1 487641 4365
d 1.003519 19 35 tcp 1500 ------N 5 21.0 35.1 489101 4367
d 1.00352 19 35 tcp 1500 ------N 5 21.0 35.1 490561 4368
d 1.003524 19 35 tcp 1500 ------N 5 21.0 35.1 497861 4403
d 1.003524 19 35 tcp 1500 ------N 5 21.0 35.1 499321 4405
d 1.003543 19 35 tcp 1500 ------N 4 20.0 35.0 506621 4559
d 1.003544 19 35 tcp 1500 ------N 4 20.0 35.0 508081 4560
d 1.003547 19 35 tcp 1500 ------N 4 20.0 35.0 515381 4585
d 1.003548 19 35 tcp 1500 ------N 4 20.0 35.0 516841 4586
d 1.003548 19 35 tcp 1500 ------N 4 20.0 35.0 519761 4589
d 1.003548 19 35 tcp 1500 ------N 4 20.0 35.0 521221 4591
d 1.003548 19 35 tcp 1500 ------N 4 20.0 35.0 522681 4592
d 1.003552 19 35 tcp 1500 ------N 4 20.0 35.0 529981 4618
d 1.003599 19 35 tcp 1500 ------N 4 20.0 35.0 607361 4885
d 1.003604 19 35 tcp 1500 ------N 4 20.0 35.0 515381 4913
d 1.004292 19 35 tcp 1500 ------N 10 20.4 35.7 178121 9589
d 1.004297 19 35 tcp 1500 ------N 10 20.4 35.7 185421 9628
d 1.004297 19 35 tcp 1500 ------N 10 20.4 35.7 186881 9629
d 1.004297 19 35 tcp 1500 ------N 10 20.4 35.7 188341 9631
d 1.004297 19 35 tcp 1500 ------N 10 20.4 35.7 189801 9632
d 1.004298 19 35 tcp 1500 ------N 10 20.4 35.7 192721 9635
d 1.004303 19 35 tcp 1500 ------N 10 20.4 35.7 200021 9673
d 1.004303 19 35 tcp 1500 ------N 10 20.4 35.7 201481 9674
d 1.004303 19 35 tcp 1500 ------N 10 20.4 35.7 202941 9676
d 1.004303 19 35 tcp 1500 ------N 10 20.4 35.7 204401 9677
d 1.004304 19 35 tcp 1500 ------N 10 20.4 35.7 207321 9680
d 1.004309 19 35 tcp 1500 ------N 10 20.4 35.7 214621 9718
d 1.004309 19 35 tcp 1500 ------N 10 20.4 35.7 216081 9719
d 1.004309 19 35 tcp 1500 ------N 10 20.4 35.7 217541 9721
d 1.004309 19 35 tcp 1500 ------N 10 20.4 35.7 219001 9722
d 1.00431 19 35 tcp 1500 ------N 10 20.4 35.7 221921 9725
d 1.004315 19 35 tcp 1500 ------N 10 20.4 35.7 229221 9763
d 1.004315 19 35 tcp 1500 ------N 10 20.4 35.7 230681 9764
d 1.004315 19 35 tcp 1500 ------N 10 20.4 35.7 232141 9766
d 1.004315 19 35 tcp 1500 ------N 10 20.4 35.7 233601 9767
d 1.004316 19 35 tcp 1500 ------N 10 20.4 35.7 236521 9770
d 1.004321 19 35 tcp 1500 ------N 10 20.4 35.7 243821 9809
d 1.004321 19 35 tcp 1500 ------N 10 20.4 35.7 245281 9810
d 1.004321 19 35 tcp 1500 ------N 10 20.4 35.7 246741 9812
d 1.004321 19 35 tcp 1500 ------N 10 20.4 35.7 248201 9813
d 1.004322 19 35 tcp 1500 ------N 10 20.4 35.7 251121 9816
d 1.004327 19 35 tcp 1500 ------N 10 20.4 35.7 258421 9854
d 1.004327 19 35 tcp 1500 ------N 10 20.4 35.7 259881 9855
d 1.004327 19 35 tcp 1500 ------N 10 20.4 35.7 261341 9857
d 1.004327 19 35 tcp 1500 ------N 10 20.4 35.7 262801 9858
d 1.004328 19 35 tcp 1500 ------N 10 20.4 35.7 265721 9861
d 1.004333 19 35 tcp 1500 ------N 10 20.4 35.7 273021 9899
d 1.004333 19 35 tcp 1500 ------N 10 20.4 35.7 274481 9900
d 1.004333 19 35 tcp 1500 ------N 10 20.4 35.7 275941 9902
d 1.004333 19 35 tcp 1500 ------N 10 20.4 35.7 277401 9903
d 1.004334 19 35 tcp 1500 ------N 10 20.4 35.7 280321 9906
d 1.004339 19 35 tcp 1500 ------N 10 20.4 35.7 287621 9942
d 1.004339 19 35 tcp 1500 ------N 10 20.4 35.7 289081 9943
d 1.004339 19 35 tcp 1500 ------N 10 20.4 35.7 290541 9945
d 1.004339 19 35 tcp 1500 ------N 10 20.4 35.7 292001 9946
d 1.004339 19 35 tcp 1500 ------N 10 20.4 35.7 293461 9948
d 1.004339 19 35 tcp 1500 ------N 10 20.4 35.7 294921 9949
d 1.00434 19 35 tcp 1500 ------N 10 20.4 35.7 297841 9954
d 1.00434 19 35 tcp 1500 ------N 10 20.4 35.7 299301 9956
d 1.00434 19 35 tcp 1500 ------N 10 20.4 35.7 300761 9957
d 1.004346 19 35 tcp 1500 ------N 10 20.4 35.7 309521 9997
d 1.004346 19 35 tcp 1500 ------N 10 20.4 35.7 310981 10003
d 1.004346 19 35 tcp 1500 ------N 10 20.4 35.7 312441 10004
d 1.004348 19 35 tcp 1500 ------N 10 20.4 35.7 315361 10013
d 1.004349 19 35 tcp 1500 ------N 10 20.4 35.7 318281 10022
d 1.00435 19 35 tcp 1500 ------N 10 20.4 35.7 321201 10031
d 1.004351 19 35 tcp 1500 ------N 10 20.4 35.7 324121 10040
d 1.004352 19 35 tcp 1500 ------N 10 20.4 35.7 327041 10045
d 1.004352 19 35 tcp 1500 ------N 10 20.4 35.7 328501 10047
d 1.004352 19 35 tcp 1500 ------N 10 20.4 35.7 329961 10048
d 1.004352 19 35 tcp 1500 ------N 10 20.4 35.7 331421 10050
d 1.004352 19 35 tcp 1500 ------N 10 20.4 35.7 332881 10051
d 1.004353 19 35 tcp 1500 ------N 10 20.4 35.7 335801 10054
d 1.004353 19 35 tcp 1500 ------N 10 20.4 35.7 337261 10056
d 1.004353 19 35 tcp 1500 ------N 10 20.4 35.7 338721 10057
d 1.004358 19 35 tcp 1500 ------N 10 20.4 35.7 346021 10095
d 1.004358 19 35 tcp 1500 ------N 10 20.4 35.7 347481 10096
d 1.004359 19 35 tcp 1500 ------N 10 20.4 35.7 350401 10099
d 1.004359 19 35 tcp 1500 ------N 10 20.4 35.7 351861 10101
d 1.004359 19 35 tcp 1500 ------N 10 20.4 35.7 353321 10102
d 1.004899 19 35 tcp 1500 ------N 6 22.0 35.2 2671801 13683
d 1.004972 19 35 tcp 1500 ------N 4 20.0 35.0 2701001 14160
d 1.005017 19 35 tcp 1500 ------N 5 21.0 35.1 2792981 14447
d 1.005053 19 35 tcp 1500 ------N 5 21.0 35.1 2851381 14659
d 1.006192 19 35 tcp 1500 ------N 6 22.0 35.2 4747921 22336
d 1.006233 19 35 tcp 1500 ------N 6 22.0 35.2 4799021 22629
d 1.006402 19 35 tcp 1500 ------N 4 20.0 35.0 4962541 23687
d 1.006512 19 35 tcp 1500 ------N 5 21.0 35.1 5158181 24392
d 1.006515 19 35 tcp 1500 ------N 5 21.0 35.1 5165481 24419
d 1.007046 19 35 tcp 1500 ------N 12 20.5 35.8 191261 28002
d 1.007047 19 35 tcp 1500 ------N 12 20.5 35.8 192721 28003
d 1.007047 19 35 tcp 1500 ------N 12 20.5 35.8 195641 28006
d 1.007047 19 35 tcp 1500 ------N 12 20.5 35.8 197101 28008
d 1.007047 19 35 tcp 1500 ------N 12 20.5 35.8 198561 28009
d 1.007048 19 35 tcp 1500 ------N 12 20.5 35.8 201481 28014
d 1.007049 19 35 tcp 1500 ------N 12 20.5 35.8 204401 28021
d 1.00705 19 35 tcp 1500 ------N 12 20.5 35.8 207321 28028
d 1.00705 19 35 tcp 1500 ------N 12 20.5 35.8 210241 28035
d 1.007051 19 35 tcp 1500 ------N 12 20.5 35.8 213161 28042
d 1.007055 19 35 tcp 1500 ------N 12 20.5 35.8 220461 28072
d 1.007056 19 35 tcp 1500 ------N 12 20.5 35.8 221921 28073
d 1.007056 19 35 tcp 1500 ------N 12 20.5 35.8 224841 28076
d 1.007056 19 35 tcp 1500 ------N 12 20.5 35.8 226301 28078
d 1.007056 19 35 tcp 1500 ------N 12 20.5 35.8 227761 28079
d 1.00706 19 35 tcp 1500 ------N 12 20.5 35.8 235061 28107
d 1.00706 19 35 tcp 1500 ------N 12 20.5 35.8 236521 28108
d 1.00706 19 35 tcp 1500 ------N 12 20.5 35.8 239441 28111
d 1.007061 19 35 tcp 1500 ------N 12 20.5 35.8 240901 28113
d 1.007061 19 35 tcp 1500 ------N 12 20.5 35.8 242361 28114
d 1.007064 19 35 tcp 1500 ------N 12 20.5 35.8 249661 28142
d 1.007065 19 35 tcp 1500 ------N 12 20.5 35.8 251121 28143
d 1.007065 19 35 tcp 1500 ------N 12 20.5 35.8 254041 28146
d 1.007065 19 35 tcp 1500 ------N 12 20.5 35.8 255501 28148
d 1.007065 19 35 tcp 1500 ------N 12 20.5 35.8 256961 28149
d 1.007069 19 35 tcp 1500 ------N 12 20.5 35.8 264261 28177
d 1.007069 19 35 tcp 1500 ------N 12 20.5 35.8 265721 28178
d 1.007069 19 35 tcp 1500 ------N 12 20.5 35.8 268641 28181
d 1.00707 19 35 tcp 1500 ------N 12 20.5 35.8 270101 28183
d 1.00707 19 35 tcp 1500 ------N 12 20.5 35.8 271561 28184
d 1.007072 19 35 tcp 1500 ------N 12 20.5 35.8 277401 28200
d 1.007072 19 35 tcp 1500 ------N 12 20.5 35.8 278861 28202
d 1.007072 19 35 tcp 1500 ------N 12 20.5 35.8 280321 28203
d 1.007072 19 35 tcp 1500 ------N 12 20.5 35.8 281781 28205
d 1.007072 19 35 tcp 1500 ------N 12 20.5 35.8 283241 28206
d 1.007076 19 35 tcp 1500 ------N 12 20.5 35.8 292001 28235
d 1.007076 19 35 tcp 1500 ------N 12 20.5 35.8 293461 28237
d 1.007077 19 35 tcp 1500 ------N 12 20.5 35.8 294921 28238
d 1.007077 19 35 tcp 1500 ------N 12 20.5 35.8 296381 28240
d 1.007077 19 35 tcp 1500 ------N 12 20.5 35.8 297841 28241
d 1.007077 19 35 tcp 1500 ------N 12 20.5 35.8 299301 28243
d 1.007077 19 35 tcp 1500 ------N 12 20.5 35.8 300761 28244
d 1.00708 19 35 tcp 1500 ------N 12 20.5 35.8 308061 28264
d 1.00708 19 35 tcp 1500 ------N 12 20.5 35.8 309521 28265
d 1.00708 19 35 tcp 1500 ------N 12 20.5 35.8 310981 28267
d 1.00708 19 35 tcp 1500 ------N 12 20.5 35.8 312441 28268
d 1.007084 19 35 tcp 1500 ------N 12 20.5 35.8 321201 28297
d 1.007084 19 35 tcp 1500 ------N 12 20.5 35.8 322661 28299
d 1.007084 19 35 tcp 1500 ------N 12 20.5 35.8 324121 28300
d 1.007085 19 35 tcp 1500 ------N 12 20.5 35.8 325581 28302
d 1.007085 19 35 tcp 1500 ------N 12 20.5 35.8 327041 28303
d 1.007085 19 35 tcp 1500 ------N 12 20.5 35.8 328501 28305
d 1.007085 19 35 tcp 1500 ------N 12 20.5 35.8 329961 28306
d 1.007089 19 35 tcp 1500 ------N 12 20.5 35.8 338721 28333
d 1.007089 19 35 tcp 1500 ------N 12 20.5 35.8 340181 28335
d 1.007089 19 35 tcp 1500 ------N 12 20.5 35.8 341641 28336
d 1.007089 19 35 tcp 1500 ------N 12 20.5 35.8 343101 28340
d 1.007089 19 35 tcp 1500 ------N 12 20.5 35.8 344561 28341
d 1.007095 19 35 tcp 1500 ------N 12 20.5 35.8 354781 28379
d 1.007095 19 35 tcp 1500 ------N 12 20.5 35.8 356241 28380
d 1.007096 19 35 tcp 1500 ------N 12 20.5 35.8 359161 28386
d 1.007097 19 35 tcp 1500 ------N 12 20.5 35.8 363541 28394
d 1.007097 19 35 tcp 1500 ------N 12 20.5 35.8 365001 28395
d 1.007098 19 35 tcp 1500 ------N 12 20.5 35.8 367921 28398
d 1.007098 19 35 tcp 1500 ------N 12 20.5 35.8 369381 28400
d 1.007098 19 35 tcp 1500 ------N 12 20.5 35.8 370841 28401
d 1.007098 19 35 tcp 1500 ------N 12 20.5 35.8 372301 28403
d 1.007098 19 35 tcp 1500 ------N 12 20.5 35.8 373761 28404
d 1.007102 19 35 tcp 1500 ------N 12 20.5 35.8 382521 28428
d 1.007803 19 35 tcp 1500 ------N 22 21.3 35.13 211701 30371
d 1.007803 19 35 tcp 1500 ------N 22 21.3 35.13 213161 30372
d 1.007803 19 35 tcp 1500 ------N 22 21.3 35.13 216081 30375
d 1.007803 19 35 tcp 1500 ------N 22 21.3 35.13 217541 30377
d 1.007804 19 35 tcp 1500 ------N 22 21.3 35.13 219001 30378
d 1.007806 19 35 tcp 1500 ------N 22 21.3 35.13 226301 30396
d 1.007806 19 35 tcp 1500 ------N 22 21.3 35.13 227761 30397
d 1.007806 19 35 tcp 1500 ------N 22 21.3 35.13 230681 30400
d 1.007806 19 35 tcp 1500 ------N 22 21.3 35.13 232141 30402
d 1.007807 19 35 tcp 1500 ------N 22 21.3 35.13 233601 30403
d 1.007809 19 35 tcp 1500 ------N 22 21.3 35.13 240901 30421
d 1.007809 19 35 tcp 1500 ------N 22 21.3 35.13 242361 30422
d 1.007809 19 35 tcp 1500 ------N 22 21.3 35.13 245281 30425
d 1.007809 19 35 tcp 1500 ------N 22 21.3 35.13 246741 30427
d 1.00781 19 35 tcp 1500 ------N 22 21.3 35.13 248201 30428
d 1.00781 19 35 tcp 1500 ------N 22 21.3 35.13 251121 30433
d 1.007811 19 35 tcp 1500 ------N 22 21.3 35.13 254041 30438
d 1.007811 19 35 tcp 1500 ------N 22 21.3 35.13 256961 30443
d 1.007812 19 35 tcp 1500 ------N 22 21.3 35.13 259881 30448
d 1.007813 19 35 tcp 1500 ------N 22 21.3 35.13 262801 30453
d 1.007813 19 35 tcp 1500 ------N 22 21.3 35.13 265721 30456
d 1.007814 19 35 tcp 1500 ------N 22 21.3 35.13 270101 30467
d 1.007814 19 35 tcp 1500 ------N 22 21.3 35.13 271561 30468
d 1.007815 19 35 tcp 1500 ------N 22 21.3 35.13 274481 30471
d 1.007815 19 35 tcp 1500 ------N 22 21.3 35.13 275941 30473
d 1.007815 19 35 tcp 1500 ------N 22 21.3 35.13 277401 30474
d 1.007816 19 35 tcp 1500 ------N 22 21.3 35.13 281781 30483
d 1.007816 19 35 tcp 1500 ------N 22 21.3 35.13 283241 30484
d 1.007816 19 35 tcp 1500 ------N 22 21.3 35.13 286161 30487
d 1.007817 19 35 tcp 1500 ------N 22 21.3 35.13 287621 30489
d 1.007817 19 35 tcp 1500 ------N 22 21.3 35.13 289081 30490
d 1.007817 19 35 tcp 1500 ------N 22 21.3 35.13 292001 30493
d 1.007819 19 35 tcp 1500 ------N 22 21.3 35.13 297841 30509
d 1.007819 19 35 tcp 1500 ------N 22 21.3 35.13 300761 30512
d 1.00782 19 35 tcp 1500 ------N 22 21.3 35.13 302221 30514
d 1.00782 19 35 tcp 1500 ------N 22 21.3 35.13 303681 30515
d 1.00782 19 35 tcp 1500 ------N 22 21.3 35.13 306601 30518
d 1.007822 19 35 tcp 1500 ------N 22 21.3 35.13 312441 30534
d 1.007822 19 35 tcp 1500 ------N 22 21.3 35.13 315361 30537
d 1.007823 19 35 tcp 1500 ------N 22 21.3 35.13 316821 30539
d 1.007823 19 35 tcp 1500 ------N 22 21.3 35.13 318281 30540
d 1.007823 19 35 tcp 1500 ------N 22 21.3 35.13 321201 30543
d 1.007825 19 35 tcp 1500 ------N 22 21.3 35.13 327041 30560
d 1.007825 19 35 tcp 1500 ------N 22 21.3 35.13 329961 30563
d 1.007826 19 35 tcp 1500 ------N 22 21.3 35.13 331421 30565
d 1.007826 19 35 tcp 1500 ------N 22 21.3 35.13 332881 30566
d 1.007826 19 35 tcp 1500 ------N 22 21.3 35.13 335801 30569
d 1.007828 19 35 tcp 1500 ------N 22 21.3 35.13 341641 30585
d 1.007828 19 35 tcp 1500 ------N 22 21.3 35.13 344561 30588
d 1.007829 19 35 tcp 1500 ------N 22 21.3 35.13 346021 30590