+ 0.01 0 4 tcp 40 ------- 0 0.0 5.0 0 0
- 0.01 0 4 tcp 40 ------- 0 0.0 5.0 0 0
+ 0.01 0 4 tcp 1040 ------- 0 0.0 5.0 1 1
+ 0.01 1 4 tcp 40 ------- 1 1.0 5.1 0 2
- 0.01 1 4 tcp 40 ------- 1 1.0 5.1 0 2
+ 0.01 1 4 tcp 1040 ------- 1 1.0 5.1 1 3
+ 0.01 2 4 tcp 40 ------- 2 2.0 5.2 0 4
- 0.01 2 4 tcp 40 ------- 2 2.0 5.2 0 4
+ 0.01 2 4 tcp 1040 ------- 2 2.0 5.2 1 5
+ 0.01 3 4 tcp 40 ------- 3 3.0 5.3 0 6
- 0.01 3 4 tcp 40 ------- 3 3.0 5.3 0 6
+ 0.01 3 4 tcp 1040 ------- 3 3.0 5.3 1 7
- 0.01 3 4 tcp 1040 ------- 3 3.0 5.3 1 7
- 0.01 0 4 tcp 1040 ------- 0 0.0 5.0 1 1
- 0.01 1 4 tcp 1040 ------- 1 1.0 5.1 1 3
- 0.01 2 4 tcp 1040 ------- 2 2.0 5.2 1 5
r 0.010003 3 4 tcp 40 ------- 3 3.0 5.3 0 6
+ 0.010003 4 5 tcp 40 ------- 3 3.0 5.3 0 6
- 0.010003 4 5 tcp 40 ------- 3 3.0 5.3 0 6
r 0.010003 0 4 tcp 40 ------- 0 0.0 5.0 0 0
+ 0.010003 4 5 tcp 40 ------- 0 0.0 5.0 0 0
- 0.010003 4 5 tcp 40 ------- 0 0.0 5.0 0 0
r 0.010003 1 4 tcp 40 ------- 1 1.0 5.1 0 2
+ 0.010003 4 5 tcp 40 ------- 1 1.0 5.1 0 2
r 0.010003 2 4 tcp 40 ------- 2 2.0 5.2 0 4
+ 0.010003 4 5 tcp 40 ------- 2 2.0 5.2 0 4
- 0.010003 4 5 tcp 40 ------- 1 1.0 5.1 0 2
- 0.010003 4 5 tcp 40 ------- 2 2.0 5.2 0 4
r 0.010003 3 4 tcp 1040 ------- 3 3.0 5.3 1 7
+ 0.010003 4 5 tcp 1040 ------- 3 3.0 5.3 1 7
- 0.010003 4 5 tcp 1040 ------- 3 3.0 5.3 1 7
r 0.010003 0 4 tcp 1040 ------- 0 0.0 5.0 1 1
+ 0.010003 4 5 tcp 1040 ------- 0 0.0 5.0 1 1
- 0.010003 4 5 tcp 1040 ------- 0 0.0 5.0 1 1
r 0.010003 1 4 tcp 1040 ------- 1 1.0 5.1 1 3
+ 0.010003 4 5 tcp 1040 ------- 1 1.0 5.1 1 3
r 0.010003 2 4 tcp 1040 ------- 2 2.0 5.2 1 5
+ 0.010003 4 5 tcp 1040 ------- 2 2.0 5.2 1 5
- 0.010004 4 5 tcp 1040 ------- 1 1.0 5.1 1 3
- 0.010004 4 5 tcp 1040 ------- 2 2.0 5.2 1 5
r 0.010006 4 5 tcp 40 ------- 3 3.0 5.3 0 6
+ 0.010006 5 4 ack 40 ------- 3 5.3 3.0 0 8
- 0.010006 5 4 ack 40 ------- 3 5.3 3.0 0 8
r 0.010006 4 5 tcp 40 ------- 0 0.0 5.0 0 0
+ 0.010006 5 4 ack 40 ------- 0 5.0 0.0 0 9
- 0.010006 5 4 ack 40 ------- 0 5.0 0.0 0 9
r 0.010006 4 5 tcp 40 ------- 1 1.0 5.1 0 2
+ 0.010006 5 4 ack 40 ------- 1 5.1 1.0 0 10
- 0.010006 5 4 ack 40 ------- 1 5.1 1.0 0 10
r 0.010006 4 5 tcp 40 ------- 2 2.0 5.2 0 4
+ 0.010006 5 4 ack 40 ------- 2 5.2 2.0 0 11
- 0.010006 5 4 ack 40 ------- 2 5.2 2.0 0 11
r 0.010006 4 5 tcp 1040 ------- 3 3.0 5.3 1 7
+ 0.010006 5 4 ack 40 ------- 3 5.3 3.0 1 12
- 0.010006 5 4 ack 40 ------- 3 5.3 3.0 1 12
r 0.010007 4 5 tcp 1040 ------- 0 0.0 5.0 1 1
+ 0.010007 5 4 ack 40 ------- 0 5.0 0.0 1 13
- 0.010007 5 4 ack 40 ------- 0 5.0 0.0 1 13
r 0.010007 4 5 tcp 1040 ------- 1 1.0 5.1 1 3
+ 0.010007 5 4 ack 40 ------- 1 5.1 1.0 1 14
- 0.010007 5 4 ack 40 ------- 1 5.1 1.0 1 14
r 0.010007 4 5 tcp 1040 ------- 2 2.0 5.2 1 5
+ 0.010007 5 4 ack 40 ------- 2 5.2 2.0 1 15
- 0.010007 5 4 ack 40 ------- 2 5.2 2.0 1 15
r 0.010009 5 4 ack 40 ------- 3 5.3 3.0 0 8
+ 0.010009 4 3 ack 40 ------- 3 5.3 3.0 0 8
- 0.010009 4 3 ack 40 ------- 3 5.3 3.0 0 8
r 0.010009 5 4 ack 40 ------- 0 5.0 0.0 0 9
+ 0.010009 4 0 ack 40 ------- 0 5.0 0.0 0 9
- 0.010009 4 0 ack 40 ------- 0 5.0 0.0 0 9
r 0.010009 5 4 ack 40 ------- 1 5.1 1.0 0 10
+ 0.010009 4 1 ack 40 ------- 1 5.1 1.0 0 10
- 0.010009 4 1 ack 40 ------- 1 5.1 1.0 0 10
r 0.010009 5 4 ack 40 ------- 2 5.2 2.0 0 11
+ 0.010009 4 2 ack 40 ------- 2 5.2 2.0 0 11
- 0.010009 4 2 ack 40 ------- 2 5.2 2.0 0 11
r 0.010009 5 4 ack 40 ------- 3 5.3 3.0 1 12
+ 0.010009 4 3 ack 40 ------- 3 5.3 3.0 1 12
- 0.010009 4 3 ack 40 ------- 3 5.3 3.0 1 12
r 0.01001 5 4 ack 40 ------- 0 5.0 0.0 1 13
+ 0.01001 4 0 ack 40 ------- 0 5.0 0.0 1 13
- 0.01001 4 0 ack 40 ------- 0 5.0 0.0 1 13
r 0.01001 5 4 ack 40 ------- 1 5.1 1.0 1 14
+ 0.01001 4 1 ack 40 ------- 1 5.1 1.0 1 14
- 0.01001 4 1 ack 40 ------- 1 5.1 1.0 1 14
r 0.01001 5 4 ack 40 ------- 2 5.2 2.0 1 15
+ 0.01001 4 2 ack 40 ------- 2 5.2 2.0 1 15
- 0.01001 4 2 ack 40 ------- 2 5.2 2.0 1 15
r 0.010012 4 3 ack 40 ------- 3 5.3 3.0 0 8
+ 0.010012 3 4 tcp 1040 ------- 3 3.0 5.3 2 16
- 0.010012 3 4 tcp 1040 ------- 3 3.0 5.3 2 16
+ 0.010012 3 4 tcp 1040 ------- 3 3.0 5.3 3 17
r 0.010012 4 0 ack 40 ------- 0 5.0 0.0 0 9
+ 0.010012 0 4 tcp 1040 ------- 0 0.0 5.0 2 18
- 0.010012 0 4 tcp 1040 ------- 0 0.0 5.0 2 18
+ 0.010012 0 4 tcp 1040 ------- 0 0.0 5.0 3 19
r 0.010012 4 1 ack 40 ------- 1 5.1 1.0 0 10
+ 0.010012 1 4 tcp 1040 ------- 1 1.0 5.1 2 20
- 0.010012 1 4 tcp 1040 ------- 1 1.0 5.1 2 20
+ 0.010012 1 4 tcp 1040 ------- 1 1.0 5.1 3 21
r 0.010012 4 2 ack 40 ------- 2 5.2 2.0 0 11
+ 0.010012 2 4 tcp 1040 ------- 2 2.0 5.2 2 22
- 0.010012 2 4 tcp 1040 ------- 2 2.0 5.2 2 22
+ 0.010012 2 4 tcp 1040 ------- 2 2.0 5.2 3 23
- 0.010012 3 4 tcp 1040 ------- 3 3.0 5.3 3 17
r 0.010012 4 3 ack 40 ------- 3 5.3 3.0 1 12
+ 0.010012 3 4 tcp 1040 ------- 3 3.0 5.3 4 24
- 0.010012 3 4 tcp 1040 ------- 3 3.0 5.3 4 24
+ 0.010012 3 4 tcp 1040 ------- 3 3.0 5.3 5 25
- 0.010012 3 4 tcp 1040 ------- 3 3.0 5.3 5 25
- 0.010012 0 4 tcp 1040 ------- 0 0.0 5.0 3 19
- 0.010012 1 4 tcp 1040 ------- 1 1.0 5.1 3 21
- 0.010012 2 4 tcp 1040 ------- 2 2.0 5.2 3 23
r 0.010013 4 0 ack 40 ------- 0 5.0 0.0 1 13
+ 0.010013 0 4 tcp 1040 ------- 0 0.0 5.0 4 26
+ 0.010013 0 4 tcp 1040 ------- 0 0.0 5.0 5 27
r 0.010013 4 1 ack 40 ------- 1 5.1 1.0 1 14
+ 0.010013 1 4 tcp 1040 ------- 1 1.0 5.1 4 28
+ 0.010013 1 4 tcp 1040 ------- 1 1.0 5.1 5 29
- 0.010013 0 4 tcp 1040 ------- 0 0.0 5.0 4 26
- 0.010013 1 4 tcp 1040 ------- 1 1.0 5.1 4 28
r 0.010013 4 2 ack 40 ------- 2 5.2 2.0 1 15
+ 0.010013 2 4 tcp 1040 ------- 2 2.0 5.2 4 30
- 0.010013 2 4 tcp 1040 ------- 2 2.0 5.2 4 30
+ 0.010013 2 4 tcp 1040 ------- 2 2.0 5.2 5 31
- 0.010013 0 4 tcp 1040 ------- 0 0.0 5.0 5 27
- 0.010013 1 4 tcp 1040 ------- 1 1.0 5.1 5 29
- 0.010013 2 4 tcp 1040 ------- 2 2.0 5.2 5 31
r 0.010015 3 4 tcp 1040 ------- 3 3.0 5.3 2 16
+ 0.010015 4 5 tcp 1040 ------- 3 3.0 5.3 2 16
- 0.010015 4 5 tcp 1040 ------- 3 3.0 5.3 2 16
r 0.010015 3 4 tcp 1040 ------- 3 3.0 5.3 3 17
+ 0.010015 4 5 tcp 1040 ------- 3 3.0 5.3 3 17
- 0.010015 4 5 tcp 1040 ------- 3 3.0 5.3 3 17
r 0.010015 3 4 tcp 1040 ------- 3 3.0 5.3 4 24
+ 0.010015 4 5 tcp 1040 ------- 3 3.0 5.3 4 24
r 0.010015 3 4 tcp 1040 ------- 3 3.0 5.3 5 25
+ 0.010015 4 5 tcp 1040 ------- 3 3.0 5.3 5 25
r 0.010015 0 4 tcp 1040 ------- 0 0.0 5.0 2 18
+ 0.010015 4 5 tcp 1040 ------- 0 0.0 5.0 2 18
r 0.010015 1 4 tcp 1040 ------- 1 1.0 5.1 2 20
+ 0.010015 4 5 tcp 1040 ------- 1 1.0 5.1 2 20
r 0.010015 2 4 tcp 1040 ------- 2 2.0 5.2 2 22
+ 0.010015 4 5 tcp 1040 ------- 2 2.0 5.2 2 22
- 0.010016 4 5 tcp 1040 ------- 3 3.0 5.3 4 24
- 0.010016 4 5 tcp 1040 ------- 3 3.0 5.3 5 25
r 0.010016 0 4 tcp 1040 ------- 0 0.0 5.0 3 19
+ 0.010016 4 5 tcp 1040 ------- 0 0.0 5.0 3 19
r 0.010016 1 4 tcp 1040 ------- 1 1.0 5.1 3 21
+ 0.010016 4 5 tcp 1040 ------- 1 1.0 5.1 3 21
r 0.010016 2 4 tcp 1040 ------- 2 2.0 5.2 3 23
+ 0.010016 4 5 tcp 1040 ------- 2 2.0 5.2 3 23
- 0.010016 4 5 tcp 1040 ------- 0 0.0 5.0 2 18
- 0.010016 4 5 tcp 1040 ------- 1 1.0 5.1 2 20
r 0.010016 0 4 tcp 1040 ------- 0 0.0 5.0 4 26
+ 0.010016 4 5 tcp 1040 ------- 0 0.0 5.0 4 26
r 0.010016 1 4 tcp 1040 ------- 1 1.0 5.1 4 28
+ 0.010016 4 5 tcp 1040 ------- 1 1.0 5.1 4 28
- 0.010016 4 5 tcp 1040 ------- 2 2.0 5.2 2 22
r 0.010016 2 4 tcp 1040 ------- 2 2.0 5.2 4 30
+ 0.010016 4 5 tcp 1040 ------- 2 2.0 5.2 4 30
- 0.010017 4 5 tcp 1040 ------- 0 0.0 5.0 3 19
r 0.010017 0 4 tcp 1040 ------- 0 0.0 5.0 5 27
+ 0.010017 4 5 tcp 1040 ------- 0 0.0 5.0 5 27
r 0.010017 1 4 tcp 1040 ------- 1 1.0 5.1 5 29
+ 0.010017 4 5 tcp 1040 ------- 1 1.0 5.1 5 29
- 0.010017 4 5 tcp 1040 ------- 1 1.0 5.1 3 21
r 0.010017 2 4 tcp 1040 ------- 2 2.0 5.2 5 31
+ 0.010017 4 5 tcp 1040 ------- 2 2.0 5.2 5 31
- 0.010017 4 5 tcp 1040 ------- 2 2.0 5.2 3 23
- 0.010017 4 5 tcp 1040 ------- 0 0.0 5.0 4 26
- 0.010017 4 5 tcp 1040 ------- 1 1.0 5.1 4 28
- 0.010018 4 5 tcp 1040 ------- 2 2.0 5.2 4 30
- 0.010018 4 5 tcp 1040 ------- 0 0.0 5.0 5 27
- 0.010018 4 5 tcp 1040 ------- 1 1.0 5.1 5 29
- 0.010018 4 5 tcp 1040 ------- 2 2.0 5.2 5 31
r 0.010018 4 5 tcp 1040 ------- 3 3.0 5.3 2 16
+ 0.010018 5 4 ack 40 ------- 3 5.3 3.0 2 32
- 0.010018 5 4 ack 40 ------- 3 5.3 3.0 2 32
r 0.010019 4 5 tcp 1040 ------- 3 3.0 5.3 3 17
+ 0.010019 5 4 ack 40 ------- 3 5.3 3.0 3 33
- 0.010019 5 4 ack 40 ------- 3 5.3 3.0 3 33
r 0.010019 4 5 tcp 1040 ------- 3 3.0 5.3 4 24
+ 0.010019 5 4 ack 40 ------- 3 5.3 3.0 4 34
- 0.010019 5 4 ack 40 ------- 3 5.3 3.0 4 34
r 0.010019 4 5 tcp 1040 ------- 3 3.0 5.3 5 25
+ 0.010019 5 4 ack 40 ------- 3 5.3 3.0 5 35
- 0.010019 5 4 ack 40 ------- 3 5.3 3.0 5 35
r 0.010019 4 5 tcp 1040 ------- 0 0.0 5.0 2 18
+ 0.010019 5 4 ack 40 ------- 0 5.0 0.0 2 36
- 0.010019 5 4 ack 40 ------- 0 5.0 0.0 2 36
r 0.010019 4 5 tcp 1040 ------- 1 1.0 5.1 2 20
+ 0.010019 5 4 ack 40 ------- 1 5.1 1.0 2 37
- 0.010019 5 4 ack 40 ------- 1 5.1 1.0 2 37
r 0.01002 4 5 tcp 1040 ------- 2 2.0 5.2 2 22
+ 0.01002 5 4 ack 40 ------- 2 5.2 2.0 2 38
- 0.01002 5 4 ack 40 ------- 2 5.2 2.0 2 38
r 0.01002 4 5 tcp 1040 ------- 0 0.0 5.0 3 19
+ 0.01002 5 4 ack 40 ------- 0 5.0 0.0 3 39
- 0.01002 5 4 ack 40 ------- 0 5.0 0.0 3 39
r 0.01002 4 5 tcp 1040 ------- 1 1.0 5.1 3 21
+ 0.01002 5 4 ack 40 ------- 1 5.1 1.0 3 40
- 0.01002 5 4 ack 40 ------- 1 5.1 1.0 3 40
r 0.01002 4 5 tcp 1040 ------- 2 2.0 5.2 3 23
+ 0.01002 5 4 ack 40 ------- 2 5.2 2.0 3 41
- 0.01002 5 4 ack 40 ------- 2 5.2 2.0 3 41
r 0.01002 4 5 tcp 1040 ------- 0 0.0 5.0 4 26
+ 0.01002 5 4 ack 40 ------- 0 5.0 0.0 4 42
- 0.01002 5 4 ack 40 ------- 0 5.0 0.0 4 42
r 0.010021 4 5 tcp 1040 ------- 1 1.0 5.1 4 28
+ 0.010021 5 4 ack 40 ------- 1 5.1 1.0 4 43
- 0.010021 5 4 ack 40 ------- 1 5.1 1.0 4 43
r 0.010021 4 5 tcp 1040 ------- 2 2.0 5.2 4 30
+ 0.010021 5 4 ack 40 ------- 2 5.2 2.0 4 44
- 0.010021 5 4 ack 40 ------- 2 5.2 2.0 4 44
r 0.010021 4 5 tcp 1040 ------- 0 0.0 5.0 5 27
+ 0.010021 5 4 ack 40 ------- 0 5.0 0.0 5 45
- 0.010021 5 4 ack 40 ------- 0 5.0 0.0 5 45
r 0.010021 4 5 tcp 1040 ------- 1 1.0 5.1 5 29
+ 0.010021 5 4 ack 40 ------- 1 5.1 1.0 5 46
- 0.010021 5 4 ack 40 ------- 1 5.1 1.0 5 46
r 0.010021 5 4 ack 40 ------- 3 5.3 3.0 2 32
+ 0.010021 4 3 ack 40 ------- 3 5.3 3.0 2 32
- 0.010021 4 3 ack 40 ------- 3 5.3 3.0 2 32
r 0.010021 4 5 tcp 1040 ------- 2 2.0 5.2 5 31
+ 0.010021 5 4 ack 40 ------- 2 5.2 2.0 5 47
- 0.010021 5 4 ack 40 ------- 2 5.2 2.0 5 47
r 0.010022 5 4 ack 40 ------- 3 5.3 3.0 3 33
+ 0.010022 4 3 ack 40 ------- 3 5.3 3.0 3 33
- 0.010022 4 3 ack 40 ------- 3 5.3 3.0 3 33
r 0.010022 5 4 ack 40 ------- 3 5.3 3.0 4 34
+ 0.010022 4 3 ack 40 ------- 3 5.3 3.0 4 34
- 0.010022 4 3 ack 40 ------- 3 5.3 3.0 4 34
r 0.010022 5 4 ack 40 ------- 3 5.3 3.0 5 35
+ 0.010022 4 3 ack 40 ------- 3 5.3 3.0 5 35
- 0.010022 4 3 ack 40 ------- 3 5.3 3.0 5 35
r 0.010022 5 4 ack 40 ------- 0 5.0 0.0 2 36
+ 0.010022 4 0 ack 40 ------- 0 5.0 0.0 2 36
- 0.010022 4 0 ack 40 ------- 0 5.0 0.0 2 36
r 0.010022 5 4 ack 40 ------- 1 5.1 1.0 2 37
+ 0.010022 4 1 ack 40 ------- 1 5.1 1.0 2 37
- 0.010022 4 1 ack 40 ------- 1 5.1 1.0 2 37
r 0.010023 5 4 ack 40 ------- 2 5.2 2.0 2 38
+ 0.010023 4 2 ack 40 ------- 2 5.2 2.0 2 38
- 0.010023 4 2 ack 40 ------- 2 5.2 2.0 2 38
r 0.010023 5 4 ack 40 ------- 0 5.0 0.0 3 39
+ 0.010023 4 0 ack 40 ------- 0 5.0 0.0 3 39
- 0.010023 4 0 ack 40 ------- 0 5.0 0.0 3 39
r 0.010023 5 4 ack 40 ------- 1 5.1 1.0 3 40
+ 0.010023 4 1 ack 40 ------- 1 5.1 1.0 3 40
- 0.010023 4 1 ack 40 ------- 1 5.1 1.0 3 40
r 0.010023 5 4 ack 40 ------- 2 5.2 2.0 3 41
+ 0.010023 4 2 ack 40 ------- 2 5.2 2.0 3 41
- 0.010023 4 2 ack 40 ------- 2 5.2 2.0 3 41
r 0.010023 5 4 ack 40 ------- 0 5.0 0.0 4 42
+ 0.010023 4 0 ack 40 ------- 0 5.0 0.0 4 42
- 0.010023 4 0 ack 40 ------- 0 5.0 0.0 4 42
r 0.010024 5 4 ack 40 ------- 1 5.1 1.0 4 43
+ 0.010024 4 1 ack 40 ------- 1 5.1 1.0 4 43
- 0.010024 4 1 ack 40 ------- 1 5.1 1.0 4 43
r 0.010024 5 4 ack 40 ------- 2 5.2 2.0 4 44
+ 0.010024 4 2 ack 40 ------- 2 5.2 2.0 4 44
- 0.010024 4 2 ack 40 ------- 2 5.2 2.0 4 44
r 0.010024 5 4 ack 40 ------- 0 5.0 0.0 5 45
+ 0.010024 4 0 ack 40 ------- 0 5.0 0.0 5 45
- 0.010024 4 0 ack 40 ------- 0 5.0 0.0 5 45
r 0.010024 5 4 ack 40 ------- 1 5.1 1.0 5 46
+ 0.010024 4 1 ack 40 ------- 1 5.1 1.0 5 46
- 0.010024 4 1 ack 40 ------- 1 5.1 1.0 5 46
r 0.010024 4 3 ack 40 ------- 3 5.3 3.0 2 32
+ 0.010024 3 4 tcp 1040 ------- 3 3.0 5.3 6 48
- 0.010024 3 4 tcp 1040 ------- 3 3.0 5.3 6 48
+ 0.010024 3 4 tcp 1040 ------- 3 3.0 5.3 7 49
- 0.010024 3 4 tcp 1040 ------- 3 3.0 5.3 7 49
r 0.010024 5 4 ack 40 ------- 2 5.2 2.0 5 47
+ 0.010024 4 2 ack 40 ------- 2 5.2 2.0 5 47
- 0.010024 4 2 ack 40 ------- 2 5.2 2.0 5 47
r 0.010025 4 3 ack 40 ------- 3 5.3 3.0 3 33
+ 0.010025 3 4 tcp 1040 ------- 3 3.0 5.3 8 50
- 0.010025 3 4 tcp 1040 ------- 3 3.0 5.3 8 50
+ 0.010025 3 4 tcp 1040 ------- 3 3.0 5.3 9 51
- 0.010025 3 4 tcp 1040 ------- 3 3.0 5.3 9 51
r 0.010025 4 3 ack 40 ------- 3 5.3 3.0 4 34
+ 0.010025 3 4 tcp 1040 ------- 3 3.0 5.3 10 52
- 0.010025 3 4 tcp 1040 ------- 3 3.0 5.3 10 52
+ 0.010025 3 4 tcp 1040 ------- 3 3.0 5.3 11 53
- 0.010025 3 4 tcp 1040 ------- 3 3.0 5.3 11 53
r 0.010025 4 3 ack 40 ------- 3 5.3 3.0 5 35
+ 0.010025 3 4 tcp 1040 ------- 3 3.0 5.3 12 54
- 0.010025 3 4 tcp 1040 ------- 3 3.0 5.3 12 54
+ 0.010025 3 4 tcp 1040 ------- 3 3.0 5.3 13 55
- 0.010025 3 4 tcp 1040 ------- 3 3.0 5.3 13 55
r 0.010025 4 0 ack 40 ------- 0 5.0 0.0 2 36
+ 0.010025 0 4 tcp 1040 ------- 0 0.0 5.0 6 56
- 0.010025 0 4 tcp 1040 ------- 0 0.0 5.0 6 56
+ 0.010025 0 4 tcp 1040 ------- 0 0.0 5.0 7 57
r 0.010025 4 1 ack 40 ------- 1 5.1 1.0 2 37
+ 0.010025 1 4 tcp 1040 ------- 1 1.0 5.1 6 58
- 0.010025 1 4 tcp 1040 ------- 1 1.0 5.1 6 58
+ 0.010025 1 4 tcp 1040 ------- 1 1.0 5.1 7 59
r 0.010026 4 2 ack 40 ------- 2 5.2 2.0 2 38
+ 0.010026 2 4 tcp 1040 ------- 2 2.0 5.2 6 60
- 0.010026 2 4 tcp 1040 ------- 2 2.0 5.2 6 60
+ 0.010026 2 4 tcp 1040 ------- 2 2.0 5.2 7 61
- 0.010026 0 4 tcp 1040 ------- 0 0.0 5.0 7 57
r 0.010026 4 0 ack 40 ------- 0 5.0 0.0 3 39
+ 0.010026 0 4 tcp 1040 ------- 0 0.0 5.0 8 62
+ 0.010026 0 4 tcp 1040 ------- 0 0.0 5.0 9 63
- 0.010026 1 4 tcp 1040 ------- 1 1.0 5.1 7 59
r 0.010026 4 1 ack 40 ------- 1 5.1 1.0 3 40
+ 0.010026 1 4 tcp 1040 ------- 1 1.0 5.1 8 64
+ 0.010026 1 4 tcp 1040 ------- 1 1.0 5.1 9 65
- 0.010026 2 4 tcp 1040 ------- 2 2.0 5.2 7 61
- 0.010026 0 4 tcp 1040 ------- 0 0.0 5.0 8 62
r 0.010026 4 2 ack 40 ------- 2 5.2 2.0 3 41
+ 0.010026 2 4 tcp 1040 ------- 2 2.0 5.2 8 66
+ 0.010026 2 4 tcp 1040 ------- 2 2.0 5.2 9 67
- 0.010026 1 4 tcp 1040 ------- 1 1.0 5.1 8 64
r 0.010026 4 0 ack 40 ------- 0 5.0 0.0 4 42
+ 0.010026 0 4 tcp 1040 ------- 0 0.0 5.0 10 68
+ 0.010026 0 4 tcp 1040 ------- 0 0.0 5.0 11 69
- 0.010026 2 4 tcp 1040 ------- 2 2.0 5.2 8 66
- 0.010026 0 4 tcp 1040 ------- 0 0.0 5.0 9 63
r 0.010027 4 1 ack 40 ------- 1 5.1 1.0 4 43
+ 0.010027 1 4 tcp 1040 ------- 1 1.0 5.1 10 70
+ 0.010027 1 4 tcp 1040 ------- 1 1.0 5.1 11 71
- 0.010027 1 4 tcp 1040 ------- 1 1.0 5.1 9 65
r 0.010027 4 2 ack 40 ------- 2 5.2 2.0 4 44
+ 0.010027 2 4 tcp 1040 ------- 2 2.0 5.2 10 72
+ 0.010027 2 4 tcp 1040 ------- 2 2.0 5.2 11 73
- 0.010027 2 4 tcp 1040 ------- 2 2.0 5.2 9 67
- 0.010027 0 4 tcp 1040 ------- 0 0.0 5.0 10 68
r 0.010027 4 0 ack 40 ------- 0 5.0 0.0 5 45
+ 0.010027 0 4 tcp 1040 ------- 0 0.0 5.0 12 74
+ 0.010027 0 4 tcp 1040 ------- 0 0.0 5.0 13 75
- 0.010027 1 4 tcp 1040 ------- 1 1.0 5.1 10 70
r 0.010027 4 1 ack 40 ------- 1 5.1 1.0 5 46
+ 0.010027 1 4 tcp 1040 ------- 1 1.0 5.1 12 76
+ 0.010027 1 4 tcp 1040 ------- 1 1.0 5.1 13 77
- 0.010027 2 4 tcp 1040 ------- 2 2.0 5.2 10 72
- 0.010027 0 4 tcp 1040 ------- 0 0.0 5.0 11 69
r 0.010027 3 4 tcp 1040 ------- 3 3.0 5.3 6 48
+ 0.010027 4 5 tcp 1040 ------- 3 3.0 5.3 6 48
- 0.010027 4 5 tcp 1040 ------- 3 3.0 5.3 6 48
r 0.010027 4 2 ack 40 ------- 2 5.2 2.0 5 47
+ 0.010027 2 4 tcp 1040 ------- 2 2.0 5.2 12 78
+ 0.010027 2 4 tcp 1040 ------- 2 2.0 5.2 13 79
- 0.010027 1 4 tcp 1040 ------- 1 1.0 5.1 11 71
r 0.010027 3 4 tcp 1040 ------- 3 3.0 5.3 7 49
+ 0.010027 4 5 tcp 1040 ------- 3 3.0 5.3 7 49
r 0.010028 3 4 tcp 1040 ------- 3 3.0 5.3 8 50
+ 0.010028 4 5 tcp 1040 ------- 3 3.0 5.3 8 50
- 0.010028 4 5 tcp 1040 ------- 3 3.0 5.3 7 49
- 0.010028 2 4 tcp 1040 ------- 2 2.0 5.2 11 73
- 0.010028 0 4 tcp 1040 ------- 0 0.0 5.0 12 74
r 0.010028 3 4 tcp 1040 ------- 3 3.0 5.3 9 51
+ 0.010028 4 5 tcp 1040 ------- 3 3.0 5.3 9 51
r 0.010028 3 4 tcp 1040 ------- 3 3.0 5.3 10 52
+ 0.010028 4 5 tcp 1040 ------- 3 3.0 5.3 10 52
- 0.010028 4 5 tcp 1040 ------- 3 3.0 5.3 8 50
- 0.010028 1 4 tcp 1040 ------- 1 1.0 5.1 12 76
r 0.010028 3 4 tcp 1040 ------- 3 3.0 5.3 11 53
+ 0.010028 4 5 tcp 1040 ------- 3 3.0 5.3 11 53
r 0.010028 3 4 tcp 1040 ------- 3 3.0 5.3 12 54
+ 0.010028 4 5 tcp 1040 ------- 3 3.0 5.3 12 54
- 0.010028 4 5 tcp 1040 ------- 3 3.0 5.3 9 51
- 0.010028 2 4 tcp 1040 ------- 2 2.0 5.2 12 78
- 0.010028 0 4 tcp 1040 ------- 0 0.0 5.0 13 75
r 0.010028 3 4 tcp 1040 ------- 3 3.0 5.3 13 55
+ 0.010028 4 5 tcp 1040 ------- 3 3.0 5.3 13 55
- 0.010028 4 5 tcp 1040 ------- 3 3.0 5.3 10 52
- 0.010028 1 4 tcp 1040 ------- 1 1.0 5.1 13 77
- 0.010028 4 5 tcp 1040 ------- 3 3.0 5.3 11 53
- 0.010028 2 4 tcp 1040 ------- 2 2.0 5.2 13 79
r 0.010029 0 4 tcp 1040 ------- 0 0.0 5.0 6 56
+ 0.010029 4 5 tcp 1040 ------- 0 0.0 5.0 6 56
- 0.010029 4 5 tcp 1040 ------- 3 3.0 5.3 12 54
r 0.010029 1 4 tcp 1040 ------- 1 1.0 5.1 6 58
+ 0.010029 4 5 tcp 1040 ------- 1 1.0 5.1 6 58
- 0.010029 4 5 tcp 1040 ------- 3 3.0 5.3 13 55
r 0.010029 2 4 tcp 1040 ------- 2 2.0 5.2 6 60
+ 0.010029 4 5 tcp 1040 ------- 2 2.0 5.2 6 60
r 0.010029 0 4 tcp 1040 ------- 0 0.0 5.0 7 57
+ 0.010029 4 5 tcp 1040 ------- 0 0.0 5.0 7 57
- 0.010029 4 5 tcp 1040 ------- 0 0.0 5.0 6 56
r 0.010029 1 4 tcp 1040 ------- 1 1.0 5.1 7 59
+ 0.010029 4 5 tcp 1040 ------- 1 1.0 5.1 7 59
- 0.010029 4 5 tcp 1040 ------- 1 1.0 5.1 6 58
r 0.010029 2 4 tcp 1040 ------- 2 2.0 5.2 7 61
+ 0.010029 4 5 tcp 1040 ------- 2 2.0 5.2 7 61
r 0.010029 0 4 tcp 1040 ------- 0 0.0 5.0 8 62
+ 0.010029 4 5 tcp 1040 ------- 0 0.0 5.0 8 62
- 0.010029 4 5 tcp 1040 ------- 2 2.0 5.2 6 60
r 0.01003 1 4 tcp 1040 ------- 1 1.0 5.1 8 64
+ 0.01003 4 5 tcp 1040 ------- 1 1.0 5.1 8 64
- 0.01003 4 5 tcp 1040 ------- 0 0.0 5.0 7 57
r 0.01003 2 4 tcp 1040 ------- 2 2.0 5.2 8 66
+ 0.01003 4 5 tcp 1040 ------- 2 2.0 5.2 8 66
r 0.01003 0 4 tcp 1040 ------- 0 0.0 5.0 9 63
+ 0.01003 4 5 tcp 1040 ------- 0 0.0 5.0 9 63
- 0.01003 4 5 tcp 1040 ------- 1 1.0 5.1 7 59
r 0.01003 1 4 tcp 1040 ------- 1 1.0 5.1 9 65
+ 0.01003 4 5 tcp 1040 ------- 1 1.0 5.1 9 65
- 0.01003 4 5 tcp 1040 ------- 2 2.0 5.2 7 61
r 0.01003 2 4 tcp 1040 ------- 2 2.0 5.2 9 67
+ 0.01003 4 5 tcp 1040 ------- 2 2.0 5.2 9 67
r 0.01003 0 4 tcp 1040 ------- 0 0.0 5.0 10 68
+ 0.01003 4 5 tcp 1040 ------- 0 0.0 5.0 10 68
- 0.01003 4 5 tcp 1040 ------- 0 0.0 5.0 8 62
r 0.01003 1 4 tcp 1040 ------- 1 1.0 5.1 10 70
+ 0.01003 4 5 tcp 1040 ------- 1 1.0 5.1 10 70
- 0.01003 4 5 tcp 1040 ------- 1 1.0 5.1 8 64
r 0.010031 4 5 tcp 1040 ------- 3 3.0 5.3 6 48
+ 0.010031 5 4 ack 40 ------- 3 5.3 3.0 6 80
- 0.010031 5 4 ack 40 ------- 3 5.3 3.0 6 80
r 0.010031 2 4 tcp 1040 ------- 2 2.0 5.2 10 72
+ 0.010031 4 5 tcp 1040 ------- 2 2.0 5.2 10 72
r 0.010031 0 4 tcp 1040 ------- 0 0.0 5.0 11 69
+ 0.010031 4 5 tcp 1040 ------- 0 0.0 5.0 11 69
- 0.010031 4 5 tcp 1040 ------- 2 2.0 5.2 8 66
r 0.010031 4 5 tcp 1040 ------- 3 3.0 5.3 7 49
+ 0.010031 5 4 ack 40 ------- 3 5.3 3.0 7 81
- 0.010031 5 4 ack 40 ------- 3 5.3 3.0 7 81
r 0.010031 1 4 tcp 1040 ------- 1 1.0 5.1 11 71
+ 0.010031 4 5 tcp 1040 ------- 1 1.0 5.1 11 71
- 0.010031 4 5 tcp 1040 ------- 0 0.0 5.0 9 63
r 0.010031 4 5 tcp 1040 ------- 3 3.0 5.3 8 50
+ 0.010031 5 4 ack 40 ------- 3 5.3 3.0 8 82
- 0.010031 5 4 ack 40 ------- 3 5.3 3.0 8 82
r 0.010031 2 4 tcp 1040 ------- 2 2.0 5.2 11 73
+ 0.010031 4 5 tcp 1040 ------- 2 2.0 5.2 11 73
r 0.010031 0 4 tcp 1040 ------- 0 0.0 5.0 12 74
+ 0.010031 4 5 tcp 1040 ------- 0 0.0 5.0 12 74
- 0.010031 4 5 tcp 1040 ------- 1 1.0 5.1 9 65
r 0.010031 4 5 tcp 1040 ------- 3 3.0 5.3 9 51
+ 0.010031 5 4 ack 40 ------- 3 5.3 3.0 9 83
- 0.010031 5 4 ack 40 ------- 3 5.3 3.0 9 83
r 0.010031 1 4 tcp 1040 ------- 1 1.0 5.1 12 76
+ 0.010031 4 5 tcp 1040 ------- 1 1.0 5.1 12 76
- 0.010031 4 5 tcp 1040 ------- 2 2.0 5.2 9 67
r 0.010031 4 5 tcp 1040 ------- 3 3.0 5.3 10 52
+ 0.010031 5 4 ack 40 ------- 3 5.3 3.0 10 84
- 0.010031 5 4 ack 40 ------- 3 5.3 3.0 10 84
r 0.010031 2 4 tcp 1040 ------- 2 2.0 5.2 12 78
+ 0.010031 4 5 tcp 1040 ------- 2 2.0 5.2 12 78
r 0.010031 0 4 tcp 1040 ------- 0 0.0 5.0 13 75
+ 0.010031 4 5 tcp 1040 ------- 0 0.0 5.0 13 75
- 0.010032 4 5 tcp 1040 ------- 0 0.0 5.0 10 68
r 0.010032 4 5 tcp 1040 ------- 3 3.0 5.3 11 53
+ 0.010032 5 4 ack 40 ------- 3 5.3 3.0 11 85
- 0.010032 5 4 ack 40 ------- 3 5.3 3.0 11 85
r 0.010032 1 4 tcp 1040 ------- 1 1.0 5.1 13 77
+ 0.010032 4 5 tcp 1040 ------- 1 1.0 5.1 13 77
- 0.010032 4 5 tcp 1040 ------- 1 1.0 5.1 10 70
r 0.010032 4 5 tcp 1040 ------- 3 3.0 5.3 12 54
+ 0.010032 5 4 ack 40 ------- 3 5.3 3.0 12 86
- 0.010032 5 4 ack 40 ------- 3 5.3 3.0 12 86
r 0.010032 2 4 tcp 1040 ------- 2 2.0 5.2 13 79
+ 0.010032 4 5 tcp 1040 ------- 2 2.0 5.2 13 79
- 0.010032 4 5 tcp 1040 ------- 2 2.0 5.2 10 72
r 0.010032 4 5 tcp 1040 ------- 3 3.0 5.3 13 55
+ 0.010032 5 4 ack 40 ------- 3 5.3 3.0 13 87
- 0.010032 5 4 ack 40 ------- 3 5.3 3.0 13 87
- 0.010032 4 5 tcp 1040 ------- 0 0.0 5.0 11 69
r 0.010032 4 5 tcp 1040 ------- 0 0.0 5.0 6 56
+ 0.010032 5 4 ack 40 ------- 0 5.0 0.0 6 88
- 0.010032 5 4 ack 40 ------- 0 5.0 0.0 6 88
- 0.010032 4 5 tcp 1040 ------- 1 1.0 5.1 11 71
r 0.010032 4 5 tcp 1040 ------- 1 1.0 5.1 6 58
+ 0.010032 5 4 ack 40 ------- 1 5.1 1.0 6 89
- 0.010032 5 4 ack 40 ------- 1 5.1 1.0 6 89
- 0.010033 4 5 tcp 1040 ------- 2 2.0 5.2 11 73
r 0.010033 4 5 tcp 1040 ------- 2 2.0 5.2 6 60
+ 0.010033 5 4 ack 40 ------- 2 5.2 2.0 6 90
- 0.010033 5 4 ack 40 ------- 2 5.2 2.0 6 90
- 0.010033 4 5 tcp 1040 ------- 0 0.0 5.0 12 74
r 0.010033 4 5 tcp 1040 ------- 0 0.0 5.0 7 57
+ 0.010033 5 4 ack 40 ------- 0 5.0 0.0 7 91
- 0.010033 5 4 ack 40 ------- 0 5.0 0.0 7 91
- 0.010033 4 5 tcp 1040 ------- 1 1.0 5.1 12 76
r 0.010033 4 5 tcp 1040 ------- 1 1.0 5.1 7 59
+ 0.010033 5 4 ack 40 ------- 1 5.1 1.0 7 92
- 0.010033 5 4 ack 40 ------- 1 5.1 1.0 7 92
- 0.010033 4 5 tcp 1040 ------- 2 2.0 5.2 12 78
r 0.010033 4 5 tcp 1040 ------- 2 2.0 5.2 7 61
+ 0.010033 5 4 ack 40 ------- 2 5.2 2.0 7 93
- 0.010033 5 4 ack 40 ------- 2 5.2 2.0 7 93
- 0.010033 4 5 tcp 1040 ------- 0 0.0 5.0 13 75
r 0.010033 4 5 tcp 1040 ------- 0 0.0 5.0 8 62
+ 0.010033 5 4 ack 40 ------- 0 5.0 0.0 8 94
- 0.010033 5 4 ack 40 ------- 0 5.0 0.0 8 94
r 0.010034 5 4 ack 40 ------- 3 5.3 3.0 6 80
+ 0.010034 4 3 ack 40 ------- 3 5.3 3.0 6 80
- 0.010034 4 3 ack 40 ------- 3 5.3 3.0 6 80
- 0.010034 4 5 tcp 1040 ------- 1 1.0 5.1 13 77
r 0.010034 4 5 tcp 1040 ------- 1 1.0 5.1 8 64
+ 0.010034 5 4 ack 40 ------- 1 5.1 1.0 8 95
- 0.010034 5 4 ack 40 ------- 1 5.1 1.0 8 95
r 0.010034 5 4 ack 40 ------- 3 5.3 3.0 7 81
+ 0.010034 4 3 ack 40 ------- 3 5.3 3.0 7 81
- 0.010034 4 3 ack 40 ------- 3 5.3 3.0 7 81
- 0.010034 4 5 tcp 1040 ------- 2 2.0 5.2 13 79
r 0.010034 4 5 tcp 1040 ------- 2 2.0 5.2 8 66
+ 0.010034 5 4 ack 40 ------- 2 5.2 2.0 8 96
- 0.010034 5 4 ack 40 ------- 2 5.2 2.0 8 96
r 0.010034 5 4 ack 40 ------- 3 5.3 3.0 8 82
+ 0.010034 4 3 ack 40 ------- 3 5.3 3.0 8 82
- 0.010034 4 3 ack 40 ------- 3 5.3 3.0 8 82
r 0.010034 4 5 tcp 1040 ------- 0 0.0 5.0 9 63
+ 0.010034 5 4 ack 40 ------- 0 5.0 0.0 9 97
- 0.010034 5 4 ack 40 ------- 0 5.0 0.0 9 97
r 0.010034 5 4 ack 40 ------- 3 5.3 3.0 9 83
+ 0.010034 4 3 ack 40 ------- 3 5.3 3.0 9 83
- 0.010034 4 3 ack 40 ------- 3 5.3 3.0 9 83
r 0.010034 4 5 tcp 1040 ------- 1 1.0 5.1 9 65
+ 0.010034 5 4 ack 40 ------- 1 5.1 1.0 9 98
- 0.010034 5 4 ack 40 ------- 1 5.1 1.0 9 98
r 0.010034 5 4 ack 40 ------- 3 5.3 3.0 10 84
+ 0.010034 4 3 ack 40 ------- 3 5.3 3.0 10 84
- 0.010034 4 3 ack 40 ------- 3 5.3 3.0 10 84
r 0.010035 4 5 tcp 1040 ------- 2 2.0 5.2 9 67
+ 0.010035 5 4 ack 40 ------- 2 5.2 2.0 9 99
- 0.010035 5 4 ack 40 ------- 2 5.2 2.0 9 99
r 0.010035 5 4 ack 40 ------- 3 5.3 3.0 11 85
+ 0.010035 4 3 ack 40 ------- 3 5.3 3.0 11 85
- 0.010035 4 3 ack 40 ------- 3 5.3 3.0 11 85
r 0.010035 4 5 tcp 1040 ------- 0 0.0 5.0 10 68
+ 0.010035 5 4 ack 40 ------- 0 5.0 0.0 10 100
- 0.010035 5 4 ack 40 ------- 0 5.0 0.0 10 100
r 0.010035 5 4 ack 40 ------- 3 5.3 3.0 12 86
+ 0.010035 4 3 ack 40 ------- 3 5.3 3.0 12 86
- 0.010035 4 3 ack 40 ------- 3 5.3 3.0 12 86
r 0.010035 4 5 tcp 1040 ------- 1 1.0 5.1 10 70
+ 0.010035 5 4 ack 40 ------- 1 5.1 1.0 10 101
- 0.010035 5 4 ack 40 ------- 1 5.1 1.0 10 101
r 0.010035 5 4 ack 40 ------- 3 5.3 3.0 13 87
+ 0.010035 4 3 ack 40 ------- 3 5.3 3.0 13 87
- 0.010035 4 3 ack 40 ------- 3 5.3 3.0 13 87
r 0.010035 4 5 tcp 1040 ------- 2 2.0 5.2 10 72
+ 0.010035 5 4 ack 40 ------- 2 5.2 2.0 10 102
- 0.010035 5 4 ack 40 ------- 2 5.2 2.0 10 102
r 0.010035 5 4 ack 40 ------- 0 5.0 0.0 6 88
+ 0.010035 4 0 ack 40 ------- 0 5.0 0.0 6 88
- 0.010035 4 0 ack 40 ------- 0 5.0 0.0 6 88
r 0.010035 4 5 tcp 1040 ------- 0 0.0 5.0 11 69
+ 0.010035 5 4 ack 40 ------- 0 5.0 0.0 11 103
- 0.010035 5 4 ack 40 ------- 0 5.0 0.0 11 103
r 0.010035 5 4 ack 40 ------- 1 5.1 1.0 6 89
+ 0.010035 4 1 ack 40 ------- 1 5.1 1.0 6 89
- 0.010035 4 1 ack 40 ------- 1 5.1 1.0 6 89
r 0.010036 4 5 tcp 1040 ------- 1 1.0 5.1 11 71
+ 0.010036 5 4 ack 40 ------- 1 5.1 1.0 11 104
- 0.010036 5 4 ack 40 ------- 1 5.1 1.0 11 104
r 0.010036 5 4 ack 40 ------- 2 5.2 2.0 6 90
+ 0.010036 4 2 ack 40 ------- 2 5.2 2.0 6 90
- 0.010036 4 2 ack 40 ------- 2 5.2 2.0 6 90
r 0.010036 4 5 tcp 1040 ------- 2 2.0 5.2 11 73
+ 0.010036 5 4 ack 40 ------- 2 5.2 2.0 11 105
- 0.010036 5 4 ack 40 ------- 2 5.2 2.0 11 105
r 0.010036 5 4 ack 40 ------- 0 5.0 0.0 7 91
+ 0.010036 4 0 ack 40 ------- 0 5.0 0.0 7 91
- 0.010036 4 0 ack 40 ------- 0 5.0 0.0 7 91
r 0.010036 4 5 tcp 1040 ------- 0 0.0 5.0 12 74
+ 0.010036 5 4 ack 40 ------- 0 5.0 0.0 12 106
- 0.010036 5 4 ack 40 ------- 0 5.0 0.0 12 106
r 0.010036 5 4 ack 40 ------- 1 5.1 1.0 7 92
+ 0.010036 4 1 ack 40 ------- 1 5.1 1.0 7 92
- 0.010036 4 1 ack 40 ------- 1 5.1 1.0 7 92
r 0.010036 4 5 tcp 1040 ------- 1 1.0 5.1 12 76
+ 0.010036 5 4 ack 40 ------- 1 5.1 1.0 12 107
- 0.010036 5 4 ack 40 ------- 1 5.1 1.0 12 107
r 0.010036 5 4 ack 40 ------- 2 5.2 2.0 7 93
+ 0.010036 4 2 ack 40 ------- 2 5.2 2.0 7 93
- 0.010036 4 2 ack 40 ------- 2 5.2 2.0 7 93
r 0.010036 4 5 tcp 1040 ------- 2 2.0 5.2 12 78
+ 0.010036 5 4 ack 40 ------- 2 5.2 2.0 12 108
- 0.010036 5 4 ack 40 ------- 2 5.2 2.0 12 108
r 0.010037 5 4 ack 40 ------- 0 5.0 0.0 8 94
+ 0.010037 4 0 ack 40 ------- 0 5.0 0.0 8 94
- 0.010037 4 0 ack 40 ------- 0 5.0 0.0 8 94
r 0.010037 4 3 ack 40 ------- 3 5.3 3.0 6 80
+ 0.010037 3 4 tcp 1040 ------- 3 3.0 5.3 14 109
- 0.010037 3 4 tcp 1040 ------- 3 3.0 5.3 14 109
+ 0.010037 3 4 tcp 1040 ------- 3 3.0 5.3 15 110
r 0.010037 4 5 tcp 1040 ------- 0 0.0 5.0 13 75
+ 0.010037 5 4 ack 40 ------- 0 5.0 0.0 13 111
- 0.010037 5 4 ack 40 ------- 0 5.0 0.0 13 111
- 0.010037 3 4 tcp 1040 ------- 3 3.0 5.3 15 110
r 0.010037 5 4 ack 40 ------- 1 5.1 1.0 8 95
+ 0.010037 4 1 ack 40 ------- 1 5.1 1.0 8 95
- 0.010037 4 1 ack 40 ------- 1 5.1 1.0 8 95
r 0.010037 4 3 ack 40 ------- 3 5.3 3.0 7 81
+ 0.010037 3 4 tcp 1040 ------- 3 3.0 5.3 16 112
- 0.010037 3 4 tcp 1040 ------- 3 3.0 5.3 16 112
+ 0.010037 3 4 tcp 1040 ------- 3 3.0 5.3 17 113
r 0.010037 4 5 tcp 1040 ------- 1 1.0 5.1 13 77
+ 0.010037 5 4 ack 40 ------- 1 5.1 1.0 13 114
- 0.010037 5 4 ack 40 ------- 1 5.1 1.0 13 114
- 0.010037 3 4 tcp 1040 ------- 3 3.0 5.3 17 113
r 0.010037 5 4 ack 40 ------- 2 5.2 2.0 8 96
+ 0.010037 4 2 ack 40 ------- 2 5.2 2.0 8 96
- 0.010037 4 2 ack 40 ------- 2 5.2 2.0 8 96
r 0.010037 4 3 ack 40 ------- 3 5.3 3.0 8 82
+ 0.010037 3 4 tcp 1040 ------- 3 3.0 5.3 18 115
- 0.010037 3 4 tcp 1040 ------- 3 3.0 5.3 18 115
+ 0.010037 3 4 tcp 1040 ------- 3 3.0 5.3 19 116
r 0.010037 4 5 tcp 1040 ------- 2 2.0 5.2 13 79
+ 0.010037 5 4 ack 40 ------- 2 5.2 2.0 13 117
- 0.010037 5 4 ack 40 ------- 2 5.2 2.0 13 117
- 0.010037 3 4 tcp 1040 ------- 3 3.0 5.3 19 116
r 0.010037 5 4 ack 40 ------- 0 5.0 0.0 9 97
+ 0.010037 4 0 ack 40 ------- 0 5.0 0.0 9 97
- 0.010037 4 0 ack 40 ------- 0 5.0 0.0 9 97
r 0.010037 4 3 ack 40 ------- 3 5.3 3.0 9 83
+ 0.010037 3 4 tcp 1040 ------- 3 3.0 5.3 20 118
- 0.010037 3 4 tcp 1040 ------- 3 3.0 5.3 20 118
+ 0.010037 3 4 tcp 1040 ------- 3 3.0 5.3 21 119
- 0.010037 3 4 tcp 1040 ------- 3 3.0 5.3 21 119
r 0.010037 5 4 ack 40 ------- 1 5.1 1.0 9 98
+ 0.010037 4 1 ack 40 ------- 1 5.1 1.0 9 98
- 0.010037 4 1 ack 40 ------- 1 5.1 1.0 9 98
r 0.010037 4 3 ack 40 ------- 3 5.3 3.0 10 84
+ 0.010037 3 4 tcp 1040 ------- 3 3.0 5.3 22 120
- 0.010037 3 4 tcp 1040 ------- 3 3.0 5.3 22 120
+ 0.010037 3 4 tcp 1040 ------- 3 3.0 5.3 23 121
- 0.010037 3 4 tcp 1040 ------- 3 3.0 5.3 23 121
r 0.010038 5 4 ack 40 ------- 2 5.2 2.0 9 99
+ 0.010038 4 2 ack 40 ------- 2 5.2 2.0 9 99
- 0.010038 4 2 ack 40 ------- 2 5.2 2.0 9 99
r 0.010038 4 3 ack 40 ------- 3 5.3 3.0 11 85
+ 0.010038 3 4 tcp 1040 ------- 3 3.0 5.3 24 122
- 0.010038 3 4 tcp 1040 ------- 3 3.0 5.3 24 122
+ 0.010038 3 4 tcp 1040 ------- 3 3.0 5.3 25 123
- 0.010038 3 4 tcp 1040 ------- 3 3.0 5.3 25 123
r 0.010038 5 4 ack 40 ------- 0 5.0 0.0 10 100
+ 0.010038 4 0 ack 40 ------- 0 5.0 0.0 10 100
- 0.010038 4 0 ack 40 ------- 0 5.0 0.0 10 100
r 0.010038 4 3 ack 40 ------- 3 5.3 3.0 12 86
+ 0.010038 3 4 tcp 1040 ------- 3 3.0 5.3 26 124
- 0.010038 3 4 tcp 1040 ------- 3 3.0 5.3 26 124
+ 0.010038 3 4 tcp 1040 ------- 3 3.0 5.3 27 125
- 0.010038 3 4 tcp 1040 ------- 3 3.0 5.3 27 125
r 0.010038 5 4 ack 40 ------- 1 5.1 1.0 10 101
+ 0.010038 4 1 ack 40 ------- 1 5.1 1.0 10 101
- 0.010038 4 1 ack 40 ------- 1 5.1 1.0 10 101
r 0.010038 4 3 ack 40 ------- 3 5.3 3.0 13 87
+ 0.010038 3 4 tcp 1040 ------- 3 3.0 5.3 28 126
- 0.010038 3 4 tcp 1040 ------- 3 3.0 5.3 28 126
+ 0.010038 3 4 tcp 1040 ------- 3 3.0 5.3 29 127