d 1.003221 19 35 tcp 1500 ------N 7 23.0 35.3 217541 1991
d 1.003221 19 35 tcp 1500 ------N 7 23.0 35.3 219001 1992
d 1.003221 19 35 tcp 1500 ------N 7 23.0 35.3 221921 1995
d 1.003222 19 35 tcp 1500 ------N 7 23.0 35.3 223381 1997
d 1.003222 19 35 tcp 1500 ------N 7 23.0 35.3 224841 1998
d 1.003222 19 35 tcp 1500 ------N 7 23.0 35.3 227761 2001
d 1.003222 19 35 tcp 1500 ------N 7 23.0 35.3 229221 2003
d 1.003222 19 35 tcp 1500 ------N 7 23.0 35.3 230681 2004
d 1.003223 19 35 tcp 1500 ------N 7 23.0 35.3 233601 2007
d 1.003223 19 35 tcp 1500 ------N 7 23.0 35.3 235061 2009
d 1.003223 19 35 tcp 1500 ------N 7 23.0 35.3 236521 2010
d 1.003223 19 35 tcp 1500 ------N 7 23.0 35.3 239441 2013
d 1.003223 19 35 tcp 1500 ------N 7 23.0 35.3 240901 2015
d 1.003223 19 35 tcp 1500 ------N 7 23.0 35.3 242361 2016
d 1.003224 19 35 tcp 1500 ------N 7 23.0 35.3 245281 2019
d 1.003224 19 35 tcp 1500 ------N 7 23.0 35.3 248201 2022
d 1.003224 19 35 tcp 1500 ------N 7 23.0 35.3 251121 2026
d 1.003225 19 35 tcp 1500 ------N 7 23.0 35.3 254041 2029
d 1.003225 19 35 tcp 1500 ------N 7 23.0 35.3 256961 2032
d 1.003225 19 35 tcp 1500 ------N 7 23.0 35.3 259881 2035
d 1.003226 19 35 tcp 1500 ------N 7 23.0 35.3 262801 2038
d 1.003226 19 35 tcp 1500 ------N 7 23.0 35.3 265721 2041
d 1.003226 19 35 tcp 1500 ------N 7 23.0 35.3 268641 2044
d 1.003226 19 35 tcp 1500 ------N 7 23.0 35.3 271561 2047
d 1.003227 19 35 tcp 1500 ------N 7 23.0 35.3 274481 2050
d 1.003227 19 35 tcp 1500 ------N 7 23.0 35.3 277401 2053
d 1.003227 19 35 tcp 1500 ------N 7 23.0 35.3 280321 2056
d 1.003228 19 35 tcp 1500 ------N 7 23.0 35.3 283241 2059
d 1.003228 19 35 tcp 1500 ------N 7 23.0 35.3 286161 2062
d 1.003228 19 35 tcp 1500 ------N 7 23.0 35.3 289081 2065
d 1.003229 19 35 tcp 1500 ------N 7 23.0 35.3 292001 2068
d 1.003229 19 35 tcp 1500 ------N 7 23.0 35.3 294921 2071
d 1.003229 19 35 tcp 1500 ------N 7 23.0 35.3 297841 2074
d 1.003229 19 35 tcp 1500 ------N 7 23.0 35.3 300761 2077
d 1.00323 19 35 tcp 1500 ------N 7 23.0 35.3 303681 2080
d 1.00323 19 35 tcp 1500 ------N 7 23.0 35.3 306601 2083
d 1.00323 19 35 tcp 1500 ------N 7 23.0 35.3 309521 2086
d 1.003231 19 35 tcp 1500 ------N 7 23.0 35.3 312441 2091
d 1.003231 19 35 tcp 1500 ------N 7 23.0 35.3 313901 2093
d 1.003231 19 35 tcp 1500 ------N 7 23.0 35.3 315361 2094
d 1.003231 19 35 tcp 1500 ------N 7 23.0 35.3 318281 2097
d 1.003232 19 35 tcp 1500 ------N 7 23.0 35.3 321201 2100
d 1.003232 19 35 tcp 1500 ------N 7 23.0 35.3 324121 2103
d 1.003233 19 35 tcp 1500 ------N 7 23.0 35.3 329961 2115
d 1.003234 19 35 tcp 1500 ------N 7 23.0 35.3 332881 2121
d 1.003234 19 35 tcp 1500 ------N 7 23.0 35.3 335801 2127
d 1.003235 19 35 tcp 1500 ------N 7 23.0 35.3 338721 2133
d 1.003235 19 35 tcp 1500 ------N 7 23.0 35.3 341641 2139
d 1.003236 19 35 tcp 1500 ------N 7 23.0 35.3 344561 2145
d 1.003237 19 35 tcp 1500 ------N 7 23.0 35.3 347481 2151
d 1.003237 19 35 tcp 1500 ------N 7 23.0 35.3 348941 2153
d 1.003237 19 35 tcp 1500 ------N 7 23.0 35.3 350401 2154
d 1.003237 19 35 tcp 1500 ------N 7 23.0 35.3 353321 2157
d 1.003237 19 35 tcp 1500 ------N 7 23.0 35.3 354781 2159
d 1.003238 19 35 tcp 1500 ------N 7 23.0 35.3 356241 2160
d 1.003238 19 35 tcp 1500 ------N 7 23.0 35.3 359161 2163
d 1.003238 19 35 tcp 1500 ------N 7 23.0 35.3 360621 2165
d 1.003238 19 35 tcp 1500 ------N 7 23.0 35.3 362081 2166
d 1.003238 19 35 tcp 1500 ------N 7 23.0 35.3 365001 2169
d 1.003239 19 35 tcp 1500 ------N 7 23.0 35.3 366461 2171
d 1.003239 19 35 tcp 1500 ------N 7 23.0 35.3 367921 2172
d 1.003239 19 35 tcp 1500 ------N 7 23.0 35.3 370841 2175
d 1.003239 19 35 tcp 1500 ------N 7 23.0 35.3 372301 2177
d 1.003239 19 35 tcp 1500 ------N 7 23.0 35.3 373761 2178
d 1.00324 19 35 tcp 1500 ------N 7 23.0 35.3 376681 2181
d 1.00324 19 35 tcp 1500 ------N 7 23.0 35.3 378141 2183
d 1.00324 19 35 tcp 1500 ------N 7 23.0 35.3 379601 2184
d 1.00324 19 35 tcp 1500 ------N 7 23.0 35.3 382521 2187
d 1.00324 19 35 tcp 1500 ------N 7 23.0 35.3 383981 2189
d 1.003241 19 35 tcp 1500 ------N 7 23.0 35.3 385441 2190
d 1.003241 19 35 tcp 1500 ------N 7 23.0 35.3 388361 2193
d 1.003241 19 35 tcp 1500 ------N 7 23.0 35.3 389821 2195
d 1.003241 19 35 tcp 1500 ------N 7 23.0 35.3 391281 2196
d 1.003241 19 35 tcp 1500 ------N 7 23.0 35.3 394201 2199
d 1.003242 19 35 tcp 1500 ------N 7 23.0 35.3 395661 2201
d 1.003242 19 35 tcp 1500 ------N 7 23.0 35.3 397121 2202
d 1.003242 19 35 tcp 1500 ------N 7 23.0 35.3 400041 2205
d 1.003242 19 35 tcp 1500 ------N 7 23.0 35.3 402961 2208
d 1.003243 19 35 tcp 1500 ------N 7 23.0 35.3 405881 2211
d 1.003243 19 35 tcp 1500 ------N 7 23.0 35.3 408801 2214
d 1.003243 19 35 tcp 1500 ------N 7 23.0 35.3 411721 2217
d 1.003244 19 35 tcp 1500 ------N 7 23.0 35.3 414641 2220
d 1.003244 19 35 tcp 1500 ------N 7 23.0 35.3 419021 2228
d 1.003244 19 35 tcp 1500 ------N 7 23.0 35.3 420481 2229
d 1.003245 19 35 tcp 1500 ------N 7 23.0 35.3 423401 2232
d 1.003245 19 35 tcp 1500 ------N 7 23.0 35.3 424861 2234
d 1.003245 19 35 tcp 1500 ------N 7 23.0 35.3 426321 2235
d 1.003245 19 35 tcp 1500 ------N 7 23.0 35.3 429241 2238
d 1.003247 19 35 tcp 1500 ------N 7 23.0 35.3 435081 2250
d 1.003283 19 35 tcp 1500 ------N 6 22.0 35.2 204401 2492
d 1.003283 19 35 tcp 1500 ------N 6 22.0 35.2 207321 2495
d 1.003283 19 35 tcp 1500 ------N 6 22.0 35.2 210241 2498
d 1.003284 19 35 tcp 1500 ------N 6 22.0 35.2 213161 2501
d 1.003284 19 35 tcp 1500 ------N 6 22.0 35.2 216081 2506
d 1.003284 19 35 tcp 1500 ------N 6 22.0 35.2 217541 2508
d 1.003284 19 35 tcp 1500 ------N 6 22.0 35.2 219001 2509
d 1.003285 19 35 tcp 1500 ------N 6 22.0 35.2 221921 2512
d 1.003286 19 35 tcp 1500 ------N 6 22.0 35.2 227761 2524
d 1.003286 19 35 tcp 1500 ------N 6 22.0 35.2 230681 2530
d 1.003287 19 35 tcp 1500 ------N 6 22.0 35.2 233601 2536
d 1.003288 19 35 tcp 1500 ------N 6 22.0 35.2 236521 2542
d 1.003288 19 35 tcp 1500 ------N 6 22.0 35.2 239441 2548
d 1.003289 19 35 tcp 1500 ------N 6 22.0 35.2 242361 2554
d 1.003289 19 35 tcp 1500 ------N 6 22.0 35.2 245281 2560
d 1.00329 19 35 tcp 1500 ------N 6 22.0 35.2 246741 2562
d 1.00329 19 35 tcp 1500 ------N 6 22.0 35.2 248201 2563
d 1.00329 19 35 tcp 1500 ------N 6 22.0 35.2 251121 2566
d 1.00329 19 35 tcp 1500 ------N 6 22.0 35.2 252581 2568
d 1.00329 19 35 tcp 1500 ------N 6 22.0 35.2 254041 2569
d 1.003291 19 35 tcp 1500 ------N 6 22.0 35.2 256961 2572
d 1.003291 19 35 tcp 1500 ------N 6 22.0 35.2 258421 2574
d 1.003291 19 35 tcp 1500 ------N 6 22.0 35.2 259881 2575
d 1.003291 19 35 tcp 1500 ------N 6 22.0 35.2 262801 2578
d 1.003291 19 35 tcp 1500 ------N 6 22.0 35.2 264261 2580
d 1.003292 19 35 tcp 1500 ------N 6 22.0 35.2 265721 2581
d 1.003292 19 35 tcp 1500 ------N 6 22.0 35.2 268641 2584
d 1.003292 19 35 tcp 1500 ------N 6 22.0 35.2 270101 2586
d 1.003292 19 35 tcp 1500 ------N 6 22.0 35.2 271561 2587
d 1.003292 19 35 tcp 1500 ------N 6 22.0 35.2 274481 2590
d 1.003293 19 35 tcp 1500 ------N 6 22.0 35.2 275941 2592
d 1.003293 19 35 tcp 1500 ------N 6 22.0 35.2 277401 2593
d 1.003293 19 35 tcp 1500 ------N 6 22.0 35.2 280321 2596
d 1.003293 19 35 tcp 1500 ------N 6 22.0 35.2 281781 2598
d 1.003293 19 35 tcp 1500 ------N 6 22.0 35.2 283241 2599
d 1.003294 19 35 tcp 1500 ------N 6 22.0 35.2 286161 2602
d 1.003294 19 35 tcp 1500 ------N 6 22.0 35.2 287621 2604
d 1.003294 19 35 tcp 1500 ------N 6 22.0 35.2 289081 2605
d 1.003294 19 35 tcp 1500 ------N 6 22.0 35.2 292001 2608
d 1.003294 19 35 tcp 1500 ------N 6 22.0 35.2 293461 2610
d 1.003295 19 35 tcp 1500 ------N 6 22.0 35.2 294921 2611
d 1.003295 19 35 tcp 1500 ------N 6 22.0 35.2 297841 2614
d 1.003295 19 35 tcp 1500 ------N 6 22.0 35.2 300761 2617
d 1.003295 19 35 tcp 1500 ------N 6 22.0 35.2 303681 2620
d 1.003296 19 35 tcp 1500 ------N 6 22.0 35.2 306601 2623
d 1.003296 19 35 tcp 1500 ------N 6 22.0 35.2 309521 2626
d 1.003296 19 35 tcp 1500 ------N 6 22.0 35.2 312441 2629
d 1.003297 19 35 tcp 1500 ------N 6 22.0 35.2 315361 2632
d 1.003297 19 35 tcp 1500 ------N 6 22.0 35.2 318281 2635
d 1.003298 19 35 tcp 1500 ------N 6 22.0 35.2 322661 2643
d 1.003298 19 35 tcp 1500 ------N 6 22.0 35.2 324121 2644
d 1.003298 19 35 tcp 1500 ------N 6 22.0 35.2 327041 2647
d 1.003299 19 35 tcp 1500 ------N 6 22.0 35.2 329961 2653
d 1.003299 19 35 tcp 1500 ------N 6 22.0 35.2 332881 2659
d 1.0033 19 35 tcp 1500 ------N 6 22.0 35.2 335801 2665
d 1.003301 19 35 tcp 1500 ------N 6 22.0 35.2 338721 2671
d 1.003301 19 35 tcp 1500 ------N 6 22.0 35.2 341641 2677
d 1.003302 19 35 tcp 1500 ------N 6 22.0 35.2 344561 2683
d 1.003302 19 35 tcp 1500 ------N 6 22.0 35.2 347481 2689
d 1.003303 19 35 tcp 1500 ------N 6 22.0 35.2 350401 2695
d 1.003304 19 35 tcp 1500 ------N 6 22.0 35.2 353321 2701
d 1.003304 19 35 tcp 1500 ------N 6 22.0 35.2 356241 2707
d 1.003305 19 35 tcp 1500 ------N 6 22.0 35.2 359161 2713
d 1.003305 19 35 tcp 1500 ------N 6 22.0 35.2 362081 2719
d 1.003306 19 35 tcp 1500 ------N 6 22.0 35.2 365001 2725
d 1.003307 19 35 tcp 1500 ------N 6 22.0 35.2 367921 2731
d 1.003307 19 35 tcp 1500 ------N 6 22.0 35.2 370841 2737
d 1.003308 19 35 tcp 1500 ------N 6 22.0 35.2 373761 2743
d 1.003308 19 35 tcp 1500 ------N 6 22.0 35.2 376681 2746
d 1.003308 19 35 tcp 1500 ------N 6 22.0 35.2 378141 2748
d 1.003308 19 35 tcp 1500 ------N 6 22.0 35.2 379601 2749
d 1.003309 19 35 tcp 1500 ------N 6 22.0 35.2 382521 2752
d 1.003309 19 35 tcp 1500 ------N 6 22.0 35.2 383981 2754
d 1.003309 19 35 tcp 1500 ------N 6 22.0 35.2 385441 2755
d 1.003309 19 35 tcp 1500 ------N 6 22.0 35.2 388361 2758
d 1.003309 19 35 tcp 1500 ------N 6 22.0 35.2 389821 2760
d 1.00331 19 35 tcp 1500 ------N 6 22.0 35.2 391281 2761
d 1.00331 19 35 tcp 1500 ------N 6 22.0 35.2 394201 2764
d 1.00331 19 35 tcp 1500 ------N 6 22.0 35.2 395661 2766
d 1.00331 19 35 tcp 1500 ------N 6 22.0 35.2 397121 2767
d 1.003311 19 35 tcp 1500 ------N 6 22.0 35.2 400041 2770
d 1.003311 19 35 tcp 1500 ------N 6 22.0 35.2 402961 2776
d 1.003312 19 35 tcp 1500 ------N 6 22.0 35.2 404421 2781
d 1.003312 19 35 tcp 1500 ------N 6 22.0 35.2 405881 2782
d 1.003312 19 35 tcp 1500 ------N 6 22.0 35.2 408801 2785
d 1.003327 19 35 tcp 1500 ------N 5 21.0 35.1 160601 2890
d 1.003328 19 35 tcp 1500 ------N 5 21.0 35.1 163521 2897
d 1.003329 19 35 tcp 1500 ------N 5 21.0 35.1 166441 2901
d 1.003329 19 35 tcp 1500 ------N 5 21.0 35.1 167901 2904
d 1.003329 19 35 tcp 1500 ------N 5 21.0 35.1 169361 2905
d 1.00333 19 35 tcp 1500 ------N 5 21.0 35.1 172281 2909
d 1.00333 19 35 tcp 1500 ------N 5 21.0 35.1 175201 2913
d 1.003331 19 35 tcp 1500 ------N 5 21.0 35.1 176661 2916
d 1.003331 19 35 tcp 1500 ------N 5 21.0 35.1 178121 2917
d 1.003332 19 35 tcp 1500 ------N 5 21.0 35.1 181041 2921
d 1.003332 19 35 tcp 1500 ------N 5 21.0 35.1 183961 2925
d 1.003333 19 35 tcp 1500 ------N 5 21.0 35.1 186881 2929
d 1.003333 19 35 tcp 1500 ------N 5 21.0 35.1 189801 2933
d 1.003334 19 35 tcp 1500 ------N 5 21.0 35.1 192721 2937
d 1.003335 19 35 tcp 1500 ------N 5 21.0 35.1 195641 2941
d 1.003335 19 35 tcp 1500 ------N 5 21.0 35.1 198561 2945
d 1.003336 19 35 tcp 1500 ------N 5 21.0 35.1 201481 2949
d 1.003336 19 35 tcp 1500 ------N 5 21.0 35.1 204401 2953
d 1.003337 19 35 tcp 1500 ------N 5 21.0 35.1 207321 2957
d 1.003338 19 35 tcp 1500 ------N 5 21.0 35.1 210241 2961
d 1.003341 19 35 tcp 1500 ------N 5 21.0 35.1 221921 2986
d 1.003343 19 35 tcp 1500 ------N 5 21.0 35.1 227761 3000
d 1.003344 19 35 tcp 1500 ------N 5 21.0 35.1 233601 3014
d 1.003346 19 35 tcp 1500 ------N 5 21.0 35.1 239441 3025
d 1.003347 19 35 tcp 1500 ------N 5 21.0 35.1 242361 3029
d 1.003347 19 35 tcp 1500 ------N 5 21.0 35.1 245281 3033
d 1.003348 19 35 tcp 1500 ------N 5 21.0 35.1 248201 3037
d 1.003348 19 35 tcp 1500 ------N 5 21.0 35.1 251121 3041
d 1.00335 19 35 tcp 1500 ------N 5 21.0 35.1 262801 3056
d 1.003351 19 35 tcp 1500 ------N 5 21.0 35.1 265721 3059
d 1.003351 19 35 tcp 1500 ------N 5 21.0 35.1 268641 3062
d 1.003351 19 35 tcp 1500 ------N 5 21.0 35.1 271561 3065
d 1.003352 19 35 tcp 1500 ------N 5 21.0 35.1 274481 3068
d 1.003353 19 35 tcp 1500 ------N 5 21.0 35.1 280321 3080
d 1.003353 19 35 tcp 1500 ------N 5 21.0 35.1 283241 3086
d 1.003354 19 35 tcp 1500 ------N 5 21.0 35.1 286161 3092
d 1.003355 19 35 tcp 1500 ------N 5 21.0 35.1 289081 3098
d 1.003355 19 35 tcp 1500 ------N 5 21.0 35.1 292001 3104
d 1.003356 19 35 tcp 1500 ------N 5 21.0 35.1 294921 3110
d 1.003356 19 35 tcp 1500 ------N 5 21.0 35.1 297841 3116
d 1.003357 19 35 tcp 1500 ------N 5 21.0 35.1 300761 3122
d 1.003358 19 35 tcp 1500 ------N 5 21.0 35.1 303681 3128
d 1.003358 19 35 tcp 1500 ------N 5 21.0 35.1 306601 3134
d 1.003359 19 35 tcp 1500 ------N 5 21.0 35.1 309521 3140
d 1.003359 19 35 tcp 1500 ------N 5 21.0 35.1 312441 3146
d 1.00336 19 35 tcp 1500 ------N 5 21.0 35.1 315361 3152
d 1.003361 19 35 tcp 1500 ------N 5 21.0 35.1 318281 3158
d 1.003361 19 35 tcp 1500 ------N 5 21.0 35.1 321201 3164
d 1.00338 19 35 tcp 1500 ------N 4 20.0 35.0 163521 3277
d 1.00338 19 35 tcp 1500 ------N 4 20.0 35.0 166441 3281
d 1.003381 19 35 tcp 1500 ------N 4 20.0 35.0 169361 3285
d 1.003382 19 35 tcp 1500 ------N 4 20.0 35.0 172281 3289
d 1.003382 19 35 tcp 1500 ------N 4 20.0 35.0 175201 3293
d 1.003383 19 35 tcp 1500 ------N 4 20.0 35.0 178121 3297
d 1.003392 19 35 tcp 1500 ------N 4 20.0 35.0 224841 3363
d 1.003393 19 35 tcp 1500 ------N 4 20.0 35.0 227761 3368
d 1.003394 19 35 tcp 1500 ------N 4 20.0 35.0 230681 3373
d 1.003394 19 35 tcp 1500 ------N 4 20.0 35.0 233601 3378
d 1.003395 19 35 tcp 1500 ------N 4 20.0 35.0 236521 3383
d 1.003395 19 35 tcp 1500 ------N 4 20.0 35.0 239441 3388
d 1.003396 19 35 tcp 1500 ------N 4 20.0 35.0 242361 3394
d 1.003396 19 35 tcp 1500 ------N 4 20.0 35.0 245281 3397
d 1.003396 19 35 tcp 1500 ------N 4 20.0 35.0 246741 3399
d 1.003397 19 35 tcp 1500 ------N 4 20.0 35.0 248201 3400
d 1.003397 19 35 tcp 1500 ------N 4 20.0 35.0 251121 3403
d 1.003397 19 35 tcp 1500 ------N 4 20.0 35.0 252581 3405
d 1.003397 19 35 tcp 1500 ------N 4 20.0 35.0 254041 3406
d 1.003398 19 35 tcp 1500 ------N 4 20.0 35.0 256961 3409
d 1.003398 19 35 tcp 1500 ------N 4 20.0 35.0 259881 3412
d 1.003398 19 35 tcp 1500 ------N 4 20.0 35.0 262801 3415
d 1.003398 19 35 tcp 1500 ------N 4 20.0 35.0 265721 3418
d 1.003399 19 35 tcp 1500 ------N 4 20.0 35.0 268641 3421
d 1.003399 19 35 tcp 1500 ------N 4 20.0 35.0 271561 3424
d 1.003399 19 35 tcp 1500 ------N 4 20.0 35.0 274481 3427
d 1.0034 19 35 tcp 1500 ------N 4 20.0 35.0 277401 3430
d 1.0034 19 35 tcp 1500 ------N 4 20.0 35.0 280321 3433
d 1.0034 19 35 tcp 1500 ------N 4 20.0 35.0 283241 3436
d 1.003401 19 35 tcp 1500 ------N 4 20.0 35.0 286161 3439
d 1.003401 19 35 tcp 1500 ------N 4 20.0 35.0 289081 3442
d 1.003401 19 35 tcp 1500 ------N 4 20.0 35.0 292001 3445
d 1.003401 19 35 tcp 1500 ------N 4 20.0 35.0 294921 3448
d 1.003402 19 35 tcp 1500 ------N 4 20.0 35.0 297841 3451
d 1.003402 19 35 tcp 1500 ------N 4 20.0 35.0 300761 3454
d 1.003402 19 35 tcp 1500 ------N 4 20.0 35.0 303681 3457
d 1.003403 19 35 tcp 1500 ------N 4 20.0 35.0 306601 3460
d 1.003403 19 35 tcp 1500 ------N 4 20.0 35.0 309521 3463
d 1.003403 19 35 tcp 1500 ------N 4 20.0 35.0 312441 3466
d 1.003404 19 35 tcp 1500 ------N 4 20.0 35.0 315361 3469
d 1.003404 19 35 tcp 1500 ------N 4 20.0 35.0 318281 3472
d 1.003404 19 35 tcp 1500 ------N 4 20.0 35.0 321201 3475
d 1.003404 19 35 tcp 1500 ------N 4 20.0 35.0 324121 3478
d 1.003405 19 35 tcp 1500 ------N 4 20.0 35.0 327041 3481
d 1.003531 19 35 tcp 1500 ------N 5 21.0 35.1 648241 4360
d 1.003541 19 35 tcp 1500 ------N 4 20.0 35.0 573781 4427
d 1.004184 19 35 tcp 1500 ------N 5 21.0 35.1 2223581 8720
d 1.004194 19 35 tcp 1500 ------N 5 21.0 35.1 2239641 8794
d 1.004194 19 35 tcp 1500 ------N 4 20.0 35.0 2140361 8796
d 1.004195 19 35 tcp 1500 ------N 5 21.0 35.1 2244021 8806
d 1.004196 19 35 tcp 1500 ------N 4 20.0 35.0 2144741 8808
d 1.004197 19 35 tcp 1500 ------N 4 20.0 35.0 2149121 8817
d 1.004197 19 35 tcp 1500 ------N 5 21.0 35.1 2248401 8819
d 1.004198 19 35 tcp 1500 ------N 4 20.0 35.0 2150581 8821
d 1.004208 19 35 tcp 1500 ------N 5 21.0 35.1 2264461 8900
d 1.004208 19 35 tcp 1500 ------N 4 20.0 35.0 2166641 8902
d 1.004211 19 35 tcp 1500 ------N 5 21.0 35.1 2270301 8920
d 1.004212 19 35 tcp 1500 ------N 4 20.0 35.0 2172481 8922
d 1.00426 19 35 tcp 1500 ------N 10 20.4 35.7 143081 9228
d 1.004261 19 35 tcp 1500 ------N 10 20.4 35.7 146001 9234
d 1.004262 19 35 tcp 1500 ------N 10 20.4 35.7 148921 9240
d 1.004263 19 35 tcp 1500 ------N 10 20.4 35.7 151841 9246
d 1.004264 19 35 tcp 1500 ------N 10 20.4 35.7 154761 9252
d 1.004265 19 35 tcp 1500 ------N 10 20.4 35.7 157681 9258
d 1.004266 19 35 tcp 1500 ------N 10 20.4 35.7 160601 9265
d 1.004267 19 35 tcp 1500 ------N 10 20.4 35.7 163521 9272
d 1.004268 19 35 tcp 1500 ------N 10 20.4 35.7 166441 9279
d 1.004268 19 35 tcp 1500 ------N 10 20.4 35.7 169361 9286
d 1.004269 19 35 tcp 1500 ------N 10 20.4 35.7 172281 9293
d 1.00427 19 35 tcp 1500 ------N 10 20.4 35.7 175201 9300
d 1.004271 19 35 tcp 1500 ------N 10 20.4 35.7 178121 9307
d 1.004272 19 35 tcp 1500 ------N 10 20.4 35.7 181041 9314
d 1.004273 19 35 tcp 1500 ------N 10 20.4 35.7 183961 9321
d 1.004274 19 35 tcp 1500 ------N 10 20.4 35.7 186881 9329
d 1.004274 19 35 tcp 1500 ------N 10 20.4 35.7 189801 9334
d 1.004275 19 35 tcp 1500 ------N 10 20.4 35.7 192721 9342
d 1.004276 19 35 tcp 1500 ------N 10 20.4 35.7 195641 9350
d 1.004277 19 35 tcp 1500 ------N 10 20.4 35.7 198561 9358
d 1.004278 19 35 tcp 1500 ------N 10 20.4 35.7 201481 9366
d 1.004279 19 35 tcp 1500 ------N 10 20.4 35.7 204401 9373
d 1.00428 19 35 tcp 1500 ------N 10 20.4 35.7 207321 9380
d 1.004281 19 35 tcp 1500 ------N 10 20.4 35.7 210241 9387
d 1.004282 19 35 tcp 1500 ------N 10 20.4 35.7 213161 9394
d 1.004283 19 35 tcp 1500 ------N 10 20.4 35.7 216081 9401
d 1.004283 19 35 tcp 1500 ------N 10 20.4 35.7 219001 9409
d 1.004284 19 35 tcp 1500 ------N 10 20.4 35.7 221921 9417
d 1.004285 19 35 tcp 1500 ------N 10 20.4 35.7 224841 9425
d 1.004286 19 35 tcp 1500 ------N 10 20.4 35.7 227761 9433
d 1.004287 19 35 tcp 1500 ------N 10 20.4 35.7 230681 9441
d 1.004288 19 35 tcp 1500 ------N 10 20.4 35.7 233601 9448
d 1.004289 19 35 tcp 1500 ------N 10 20.4 35.7 236521 9455
d 1.00429 19 35 tcp 1500 ------N 10 20.4 35.7 239441 9462
d 1.004291 19 35 tcp 1500 ------N 10 20.4 35.7 242361 9469
d 1.004292 19 35 tcp 1500 ------N 10 20.4 35.7 245281 9476
d 1.004292 19 35 tcp 1500 ------N 10 20.4 35.7 248201 9483
d 1.004293 19 35 tcp 1500 ------N 10 20.4 35.7 251121 9490
d 1.004294 19 35 tcp 1500 ------N 10 20.4 35.7 254041 9497
d 1.004295 19 35 tcp 1500 ------N 10 20.4 35.7 256961 9504
d 1.004296 19 35 tcp 1500 ------N 10 20.4 35.7 259881 9511
d 1.004297 19 35 tcp 1500 ------N 10 20.4 35.7 262801 9518
d 1.004298 19 35 tcp 1500 ------N 10 20.4 35.7 265721 9525
d 1.004299 19 35 tcp 1500 ------N 10 20.4 35.7 268641 9532
d 1.0043 19 35 tcp 1500 ------N 10 20.4 35.7 271561 9539
d 1.004301 19 35 tcp 1500 ------N 10 20.4 35.7 274481 9546
d 1.004301 19 35 tcp 1500 ------N 10 20.4 35.7 277401 9553
d 1.004302 19 35 tcp 1500 ------N 10 20.4 35.7 280321 9561
d 1.004303 19 35 tcp 1500 ------N 10 20.4 35.7 283241 9568
d 1.004304 19 35 tcp 1500 ------N 10 20.4 35.7 286161 9575
d 1.004539 19 35 tcp 1500 ------N 10 20.4 35.7 502241 11169
d 1.005163 19 35 tcp 1500 ------N 5 21.0 35.1 4280721 15324
d 1.005169 19 35 tcp 1500 ------N 4 20.0 35.0 4197501 15367
d 1.007023 19 35 tcp 1500 ------N 12 20.5 35.8 227761 20390
d 1.007024 19 35 tcp 1500 ------N 12 20.5 35.8 230681 20393
d 1.007024 19 35 tcp 1500 ------N 12 20.5 35.8 233601 20396
d 1.007024 19 35 tcp 1500 ------N 12 20.5 35.8 236521 20399
d 1.007024 19 35 tcp 1500 ------N 12 20.5 35.8 239441 20402
d 1.007025 19 35 tcp 1500 ------N 12 20.5 35.8 242361 20405
d 1.007025 19 35 tcp 1500 ------N 12 20.5 35.8 245281 20408
d 1.007025 19 35 tcp 1500 ------N 12 20.5 35.8 248201 20411
d 1.007026 19 35 tcp 1500 ------N 12 20.5 35.8 251121 20414
d 1.007026 19 35 tcp 1500 ------N 12 20.5 35.8 254041 20417
d 1.007026 19 35 tcp 1500 ------N 12 20.5 35.8 256961 20420
d 1.007027 19 35 tcp 1500 ------N 12 20.5 35.8 259881 20423
d 1.007027 19 35 tcp 1500 ------N 12 20.5 35.8 262801 20426
d 1.007027 19 35 tcp 1500 ------N 12 20.5 35.8 265721 20429
d 1.007027 19 35 tcp 1500 ------N 12 20.5 35.8 268641 20432
d 1.007028 19 35 tcp 1500 ------N 12 20.5 35.8 271561 20435
d 1.007028 19 35 tcp 1500 ------N 12 20.5 35.8 274481 20438
d 1.007028 19 35 tcp 1500 ------N 12 20.5 35.8 277401 20441
d 1.007029 19 35 tcp 1500 ------N 12 20.5 35.8 280321 20444
d 1.007029 19 35 tcp 1500 ------N 12 20.5 35.8 283241 20447
d 1.007029 19 35 tcp 1500 ------N 12 20.5 35.8 286161 20450
d 1.00703 19 35 tcp 1500 ------N 12 20.5 35.8 289081 20453
d 1.00703 19 35 tcp 1500 ------N 12 20.5 35.8 292001 20456
d 1.00703 19 35 tcp 1500 ------N 12 20.5 35.8 294921 20459
d 1.00703 19 35 tcp 1500 ------N 12 20.5 35.8 297841 20462
d 1.007031 19 35 tcp 1500 ------N 12 20.5 35.8 300761 20465
d 1.007031 19 35 tcp 1500 ------N 12 20.5 35.8 303681 20468
d 1.007031 19 35 tcp 1500 ------N 12 20.5 35.8 306601 20471
d 1.007032 19 35 tcp 1500 ------N 12 20.5 35.8 309521 20474
d 1.007032 19 35 tcp 1500 ------N 12 20.5 35.8 312441 20477
d 1.007032 19 35 tcp 1500 ------N 12 20.5 35.8 315361 20480
d 1.007033 19 35 tcp 1500 ------N 12 20.5 35.8 318281 20483
d 1.007033 19 35 tcp 1500 ------N 12 20.5 35.8 321201 20486
d 1.007033 19 35 tcp 1500 ------N 12 20.5 35.8 324121 20489
d 1.007033 19 35 tcp 1500 ------N 12 20.5 35.8 327041 20492
d 1.007034 19 35 tcp 1500 ------N 12 20.5 35.8 329961 20495
d 1.007034 19 35 tcp 1500 ------N 12 20.5 35.8 332881 20498
d 1.007034 19 35 tcp 1500 ------N 12 20.5 35.8 335801 20501
d 1.007035 19 35 tcp 1500 ------N 12 20.5 35.8 338721 20504
d 1.007035 19 35 tcp 1500 ------N 12 20.5 35.8 341641 20507
d 1.007035 19 35 tcp 1500 ------N 12 20.5 35.8 344561 20510
d 1.007036 19 35 tcp 1500 ------N 12 20.5 35.8 347481 20513
d 1.007036 19 35 tcp 1500 ------N 12 20.5 35.8 350401 20516
d 1.007036 19 35 tcp 1500 ------N 12 20.5 35.8 353321 20519
d 1.007036 19 35 tcp 1500 ------N 12 20.5 35.8 356241 20522
d 1.007037 19 35 tcp 1500 ------N 12 20.5 35.8 359161 20525
d 1.007037 19 35 tcp 1500 ------N 12 20.5 35.8 362081 20528
d 1.007037 19 35 tcp 1500 ------N 12 20.5 35.8 365001 20531
d 1.007038 19 35 tcp 1500 ------N 12 20.5 35.8 367921 20534
d 1.007038 19 35 tcp 1500 ------N 12 20.5 35.8 370841 20537
d 1.007038 19 35 tcp 1500 ------N 12 20.5 35.8 373761 20540
d 1.007039 19 35 tcp 1500 ------N 12 20.5 35.8 376681 20543
d 1.007039 19 35 tcp 1500 ------N 12 20.5 35.8 379601 20546
d 1.007039 19 35 tcp 1500 ------N 12 20.5 35.8 382521 20549
d 1.007039 19 35 tcp 1500 ------N 12 20.5 35.8 385441 20552
d 1.00704 19 35 tcp 1500 ------N 12 20.5 35.8 388361 20555
d 1.00704 19 35 tcp 1500 ------N 12 20.5 35.8 391281 20558
d 1.00704 19 35 tcp 1500 ------N 12 20.5 35.8 394201 20561
d 1.007041 19 35 tcp 1500 ------N 12 20.5 35.8 397121 20564
d 1.007041 19 35 tcp 1500 ------N 12 20.5 35.8 400041 20567
d 1.007041 19 35 tcp 1500 ------N 12 20.5 35.8 402961 20570
d 1.007042 19 35 tcp 1500 ------N 12 20.5 35.8 405881 20573
d 1.007042 19 35 tcp 1500 ------N 12 20.5 35.8 408801 20576
d 1.007042 19 35 tcp 1500 ------N 12 20.5 35.8 411721 20579
d 1.007042 19 35 tcp 1500 ------N 12 20.5 35.8 414641 20582
d 1.007043 19 35 tcp 1500 ------N 12 20.5 35.8 417561 20585
d 1.007043 19 35 tcp 1500 ------N 12 20.5 35.8 420481 20588
d 1.007043 19 35 tcp 1500 ------N 12 20.5 35.8 423401 20591
d 1.007044 19 35 tcp 1500 ------N 12 20.5 35.8 426321 20594
d 1.007044 19 35 tcp 1500 ------N 12 20.5 35.8 429241 20597
d 1.007044 19 35 tcp 1500 ------N 12 20.5 35.8 432161 20600
d 1.007045 19 35 tcp 1500 ------N 12 20.5 35.8 435081 20603
d 1.007045 19 35 tcp 1500 ------N 12 20.5 35.8 438001 20606
d 1.007045 19 35 tcp 1500 ------N 12 20.5 35.8 440921 20609
d 1.007045 19 35 tcp 1500 ------N 12 20.5 35.8 443841 20612
d 1.007046 19 35 tcp 1500 ------N 12 20.5 35.8 446761 20615
d 1.007046 19 35 tcp 1500 ------N 12 20.5 35.8 449681 20618
d 1.007046 19 35 tcp 1500 ------N 12 20.5 35.8 452601 20621
d 1.007047 19 35 tcp 1500 ------N 12 20.5 35.8 455521 20624
d 1.007212 19 35 tcp 1500 ------N 12 20.5 35.8 798621 21251
d 1.007604 19 35 tcp 1500 ------N 12 20.5 35.8 1938881 23860
d 1.007631 19 35 tcp 1500 ------N 12 20.5 35.8 1995821 24051
d 1.007633 19 35 tcp 1500 ------N 12 20.5 35.8 2000201 24063
d 1.007635 19 35 tcp 1500 ------N 12 20.5 35.8 2004581 24075
d 1.007769 19 35 tcp 1500 ------N 7 23.0 35.3 1099381 24996
d 1.007773 19 35 tcp 1500 ------N 7 23.0 35.3 1105221 25020
d 1.007809 19 35 tcp 1500 ------N 22 21.3 35.13 134321 25295
d 1.00781 19 35 tcp 1500 ------N 22 21.3 35.13 137241 25304
d 1.007811 19 35 tcp 1500 ------N 22 21.3 35.13 140161 25313
d 1.007813 19 35 tcp 1500 ------N 22 21.3 35.13 143081 25322
d 1.007814 19 35 tcp 1500 ------N 22 21.3 35.13 146001 25332
d 1.007815 19 35 tcp 1500 ------N 22 21.3 35.13 148921 25341
d 1.007816 19 35 tcp 1500 ------N 22 21.3 35.13 151841 25350
d 1.007817 19 35 tcp 1500 ------N 22 21.3 35.13 154761 25359
d 1.007819 19 35 tcp 1500 ------N 22 21.3 35.13 157681 25368
d 1.00782 19 35 tcp 1500 ------N 22 21.3 35.13 160601 25377
d 1.007821 19 35 tcp 1500 ------N 22 21.3 35.13 163521 25386
d 1.007822 19 35 tcp 1500 ------N 22 21.3 35.13 166441 25396
d 1.007823 19 35 tcp 1500 ------N 22 21.3 35.13 169361 25405
d 1.007825 19 35 tcp 1500 ------N 22 21.3 35.13 172281 25413
d 1.007826 19 35 tcp 1500 ------N 22 21.3 35.13 175201 25421
d 1.007827 19 35 tcp 1500 ------N 22 21.3 35.13 178121 25430
d 1.007828 19 35 tcp 1500 ------N 22 21.3 35.13 181041 25438
d 1.007829 19 35 tcp 1500 ------N 22 21.3 35.13 183961 25446
d 1.007831 19 35 tcp 1500 ------N 22 21.3 35.13 186881 25454
d 1.007832 19 35 tcp 1500 ------N 22 21.3 35.13 189801 25462
d 1.007833 19 35 tcp 1500 ------N 22 21.3 35.13 192721 25470
d 1.007834 19 35 tcp 1500 ------N 22 21.3 35.13 195641 25478
d 1.007835 19 35 tcp 1500 ------N 22 21.3 35.13 198561 25486
d 1.007837 19 35 tcp 1500 ------N 22 21.3 35.13 201481 25494
d 1.007838 19 35 tcp 1500 ------N 22 21.3 35.13 204401 25502
d 1.007839 19 35 tcp 1500 ------N 22 21.3 35.13 207321 25510
d 1.00784 19 35 tcp 1500 ------N 22 21.3 35.13 210241 25518
d 1.007841 19 35 tcp 1500 ------N 22 21.3 35.13 213161 25526
d 1.007843 19 35 tcp 1500 ------N 22 21.3 35.13 216081 25534
d 1.007844 19 35 tcp 1500 ------N 22 21.3 35.13 219001 25542
d 1.007845 19 35 tcp 1500 ------N 22 21.3 35.13 221921 25550
d 1.007846 19 35 tcp 1500 ------N 22 21.3 35.13 224841 25558
d 1.007847 19 35 tcp 1500 ------N 22 21.3 35.13 227761 25566
d 1.007849 19 35 tcp 1500 ------N 22 21.3 35.13 230681 25574
d 1.00785 19 35 tcp 1500 ------N 22 21.3 35.13 233601 25582
d 1.007851 19 35 tcp 1500 ------N 22 21.3 35.13 236521 25591
d 1.007852 19 35 tcp 1500 ------N 22 21.3 35.13 239441 25599
d 1.007853 19 35 tcp 1500 ------N 22 21.3 35.13 242361 25608
d 1.007855 19 35 tcp 1500 ------N 22 21.3 35.13 245281 25617
d 1.007856 19 35 tcp 1500 ------N 22 21.3 35.13 248201 25626
d 1.007857 19 35 tcp 1500 ------N 22 21.3 35.13 251121 25635
d 1.007858 19 35 tcp 1500 ------N 22 21.3 35.13 254041 25644
d 1.007859 19 35 tcp 1500 ------N 22 21.3 35.13 256961 25653
d 1.007861 19 35 tcp 1500 ------N 22 21.3 35.13 259881 25662
d 1.007862 19 35 tcp 1500 ------N 22 21.3 35.13 262801 25671
d 1.007863 19 35 tcp 1500 ------N 22 21.3 35.13 264261 25677
d 1.007863 19 35 tcp 1500 ------N 22 21.3 35.13 265721 25678
d 1.007864 19 35 tcp 1500 ------N 22 21.3 35.13 268641 25687
d 1.008282 19 35 tcp 1500 ------N 6 22.0 35.2 1439561 28464
d 1.008569 19 35 tcp 1500 ------N 12 20.5 35.8 3454361 30375
d 1.008948 19 35 tcp 1500 ------N 7 23.0 35.3 3083521 32896
d 1.00895 19 35 tcp 1500 ------N 7 23.0 35.3 3087901 32908
d 1.008951 19 35 tcp 1500 ------N 7 23.0 35.3 3090821 32913
d 1.008966 19 35 tcp 1500 ------N 7 23.0 35.3 3122941 33026
d 1.008968 19 35 tcp 1500 ------N 7 23.0 35.3 3127321 33038
d 1.00897 19 35 tcp 1500 ------N 7 23.0 35.3 3131701 33050
d 1.009001 19 35 tcp 1500 ------N 24 22.5 35.14 143081 33277
d 1.009002 19 35 tcp 1500 ------N 24 22.5 35.14 146001 33283
d 1.009002 19 35 tcp 1500 ------N 24 22.5 35.14 148921 33289
d 1.009003 19 35 tcp 1500 ------N 24 22.5 35.14 151841 33295
d 1.009004 19 35 tcp 1500 ------N 24 22.5 35.14 154761 33301
d 1.009005 19 35 tcp 1500 ------N 24 22.5 35.14 157681 33307
d 1.009006 19 35 tcp 1500 ------N 24 22.5 35.14 160601 33313
d 1.009007 19 35 tcp 1500 ------N 24 22.5 35.14 163521 33319
d 1.009008 19 35 tcp 1500 ------N 24 22.5 35.14 166441 33325
d 1.009009 19 35 tcp 1500 ------N 24 22.5 35.14 169361 33331
d 1.00901 19 35 tcp 1500 ------N 24 22.5 35.14 172281 33337
d 1.009011 19 35 tcp 1500 ------N 24 22.5 35.14 175201 33343
d 1.009011 19 35 tcp 1500 ------N 24 22.5 35.14 178121 33349
d 1.009012 19 35 tcp 1500 ------N 24 22.5 35.14 181041 33355
d 1.009013 19 35 tcp 1500 ------N 24 22.5 35.14 183961 33361
d 1.009014 19 35 tcp 1500 ------N 24 22.5 35.14 186881 33367
d 1.009015 19 35 tcp 1500 ------N 24 22.5 35.14 189801 33374
d 1.009016 19 35 tcp 1500 ------N 24 22.5 35.14 192721 33381
d 1.009017 19 35 tcp 1500 ------N 24 22.5 35.14 195641 33388
d 1.009018 19 35 tcp 1500 ------N 24 22.5 35.14 198561 33395
d 1.009019 19 35 tcp 1500 ------N 24 22.5 35.14 201481 33402
d 1.00902 19 35 tcp 1500 ------N 24 22.5 35.14 204401 33409
d 1.00902 19 35 tcp 1500 ------N 24 22.5 35.14 207321 33416
d 1.009021 19 35 tcp 1500 ------N 24 22.5 35.14 210241 33423
d 1.009022 19 35 tcp 1500 ------N 24 22.5 35.14 213161 33430
d 1.009023 19 35 tcp 1500 ------N 24 22.5 35.14 216081 33437
d 1.009024 19 35 tcp 1500 ------N 24 22.5 35.14 219001 33444
d 1.009025 19 35 tcp 1500 ------N 24 22.5 35.14 221921 33451
d 1.009026 19 35 tcp 1500 ------N 24 22.5 35.14 224841 33458
d 1.009027 19 35 tcp 1500 ------N 24 22.5 35.14 227761 33465
d 1.009028 19 35 tcp 1500 ------N 24 22.5 35.14 230681 33472
d 1.009029 19 35 tcp 1500 ------N 24 22.5 35.14 233601 33479
d 1.009029 19 35 tcp 1500 ------N 24 22.5 35.14 236521 33486
d 1.00903 19 35 tcp 1500 ------N 24 22.5 35.14 239441 33493