d 1.003224 19 35 tcp 1500 ------N 7 23.0 35.3 248201 2022
d 1.003224 19 35 tcp 1500 ------N 7 23.0 35.3 251121 2026
d 1.003225 19 35 tcp 1500 ------N 7 23.0 35.3 254041 2029
d 1.003225 19 35 tcp 1500 ------N 7 23.0 35.3 256961 2032
d 1.003225 19 35 tcp 1500 ------N 7 23.0 35.3 259881 2035
d 1.003226 19 35 tcp 1500 ------N 7 23.0 35.3 262801 2038
d 1.003226 19 35 tcp 1500 ------N 7 23.0 35.3 265721 2041
d 1.003226 19 35 tcp 1500 ------N 7 23.0 35.3 268641 2044
d 1.003226 19 35 tcp 1500 ------N 7 23.0 35.3 271561 2047
d 1.003227 19 35 tcp 1500 ------N 7 23.0 35.3 274481 2050
d 1.003227 19 35 tcp 1500 ------N 7 23.0 35.3 277401 2053
d 1.003227 19 35 tcp 1500 ------N 7 23.0 35.3 280321 2056
d 1.003228 19 35 tcp 1500 ------N 7 23.0 35.3 283241 2059
d 1.003228 19 35 tcp 1500 ------N 7 23.0 35.3 286161 2062
d 1.003228 19 35 tcp 1500 ------N 7 23.0 35.3 289081 2065
d 1.003229 19 35 tcp 1500 ------N 7 23.0 35.3 292001 2068
d 1.003229 19 35 tcp 1500 ------N 7 23.0 35.3 294921 2071
d 1.003229 19 35 tcp 1500 ------N 7 23.0 35.3 297841 2074
d 1.003229 19 35 tcp 1500 ------N 7 23.0 35.3 300761 2077
d 1.00323 19 35 tcp 1500 ------N 7 23.0 35.3 303681 2080
d 1.00323 19 35 tcp 1500 ------N 7 23.0 35.3 306601 2083
d 1.00323 19 35 tcp 1500 ------N 7 23.0 35.3 309521 2086
d 1.003231 19 35 tcp 1500 ------N 7 23.0 35.3 312441 2091
d 1.003231 19 35 tcp 1500 ------N 7 23.0 35.3 313901 2093
d 1.003231 19 35 tcp 1500 ------N 7 23.0 35.3 315361 2094
d 1.003231 19 35 tcp 1500 ------N 7 23.0 35.3 318281 2097
d 1.003232 19 35 tcp 1500 ------N 7 23.0 35.3 321201 2100
d 1.003232 19 35 tcp 1500 ------N 7 23.0 35.3 324121 2103
d 1.003233 19 35 tcp 1500 ------N 7 23.0 35.3 329961 2115
d 1.003234 19 35 tcp 1500 ------N 7 23.0 35.3 332881 2121
d 1.003234 19 35 tcp 1500 ------N 7 23.0 35.3 335801 2127
d 1.003235 19 35 tcp 1500 ------N 7 23.0 35.3 338721 2133
d 1.003235 19 35 tcp 1500 ------N 7 23.0 35.3 341641 2139
d 1.003236 19 35 tcp 1500 ------N 7 23.0 35.3 344561 2145
d 1.003237 19 35 tcp 1500 ------N 7 23.0 35.3 347481 2151
d 1.003237 19 35 tcp 1500 ------N 7 23.0 35.3 348941 2153
d 1.003237 19 35 tcp 1500 ------N 7 23.0 35.3 350401 2154
d 1.003237 19 35 tcp 1500 ------N 7 23.0 35.3 353321 2157
d 1.003237 19 35 tcp 1500 ------N 7 23.0 35.3 354781 2159
d 1.003238 19 35 tcp 1500 ------N 7 23.0 35.3 356241 2160
d 1.003238 19 35 tcp 1500 ------N 7 23.0 35.3 359161 2163
d 1.003238 19 35 tcp 1500 ------N 7 23.0 35.3 360621 2165
d 1.003238 19 35 tcp 1500 ------N 7 23.0 35.3 362081 2166
d 1.003238 19 35 tcp 1500 ------N 7 23.0 35.3 365001 2169
d 1.003239 19 35 tcp 1500 ------N 7 23.0 35.3 366461 2171
d 1.003239 19 35 tcp 1500 ------N 7 23.0 35.3 367921 2172
d 1.003239 19 35 tcp 1500 ------N 7 23.0 35.3 370841 2175
d 1.003239 19 35 tcp 1500 ------N 7 23.0 35.3 372301 2177
d 1.003239 19 35 tcp 1500 ------N 7 23.0 35.3 373761 2178
d 1.00324 19 35 tcp 1500 ------N 7 23.0 35.3 376681 2181
d 1.00324 19 35 tcp 1500 ------N 7 23.0 35.3 378141 2183
d 1.00324 19 35 tcp 1500 ------N 7 23.0 35.3 379601 2184
d 1.00324 19 35 tcp 1500 ------N 7 23.0 35.3 382521 2187
d 1.00324 19 35 tcp 1500 ------N 7 23.0 35.3 383981 2189
d 1.003241 19 35 tcp 1500 ------N 7 23.0 35.3 385441 2190
d 1.003241 19 35 tcp 1500 ------N 7 23.0 35.3 388361 2193
d 1.003241 19 35 tcp 1500 ------N 7 23.0 35.3 389821 2195
d 1.003241 19 35 tcp 1500 ------N 7 23.0 35.3 391281 2196
d 1.003241 19 35 tcp 1500 ------N 7 23.0 35.3 394201 2199
d 1.003242 19 35 tcp 1500 ------N 7 23.0 35.3 395661 2201
d 1.003242 19 35 tcp 1500 ------N 7 23.0 35.3 397121 2202
d 1.003242 19 35 tcp 1500 ------N 7 23.0 35.3 400041 2205
d 1.003242 19 35 tcp 1500 ------N 7 23.0 35.3 402961 2208
d 1.003243 19 35 tcp 1500 ------N 7 23.0 35.3 405881 2211
d 1.003243 19 35 tcp 1500 ------N 7 23.0 35.3 408801 2214
d 1.003243 19 35 tcp 1500 ------N 7 23.0 35.3 411721 2217
d 1.003244 19 35 tcp 1500 ------N 7 23.0 35.3 414641 2220
d 1.003244 19 35 tcp 1500 ------N 7 23.0 35.3 419021 2228
d 1.003244 19 35 tcp 1500 ------N 7 23.0 35.3 420481 2229
d 1.003245 19 35 tcp 1500 ------N 7 23.0 35.3 423401 2232
d 1.003245 19 35 tcp 1500 ------N 7 23.0 35.3 424861 2234
d 1.003245 19 35 tcp 1500 ------N 7 23.0 35.3 426321 2235
d 1.003245 19 35 tcp 1500 ------N 7 23.0 35.3 429241 2238
d 1.003247 19 35 tcp 1500 ------N 7 23.0 35.3 435081 2250
d 1.003247 19 35 tcp 1500 ------N 7 23.0 35.3 438001 2256
d 1.003248 19 35 tcp 1500 ------N 7 23.0 35.3 440921 2262
d 1.003248 19 35 tcp 1500 ------N 7 23.0 35.3 443841 2268
d 1.003249 19 35 tcp 1500 ------N 7 23.0 35.3 446761 2274
d 1.00325 19 35 tcp 1500 ------N 7 23.0 35.3 449681 2280
d 1.00325 19 35 tcp 1500 ------N 7 23.0 35.3 452601 2286
d 1.003251 19 35 tcp 1500 ------N 7 23.0 35.3 455521 2292
d 1.003251 19 35 tcp 1500 ------N 7 23.0 35.3 458441 2298
d 1.003252 19 35 tcp 1500 ------N 7 23.0 35.3 461361 2304
d 1.003253 19 35 tcp 1500 ------N 7 23.0 35.3 464281 2310
d 1.003253 19 35 tcp 1500 ------N 7 23.0 35.3 467201 2316
d 1.003254 19 35 tcp 1500 ------N 7 23.0 35.3 470121 2322
d 1.003254 19 35 tcp 1500 ------N 7 23.0 35.3 473041 2328
d 1.003255 19 35 tcp 1500 ------N 7 23.0 35.3 475961 2334
d 1.003255 19 35 tcp 1500 ------N 7 23.0 35.3 477421 2336
d 1.003255 19 35 tcp 1500 ------N 7 23.0 35.3 478881 2337
d 1.003256 19 35 tcp 1500 ------N 7 23.0 35.3 481801 2340
d 1.003256 19 35 tcp 1500 ------N 7 23.0 35.3 483261 2342
d 1.003256 19 35 tcp 1500 ------N 7 23.0 35.3 484721 2343
d 1.003256 19 35 tcp 1500 ------N 7 23.0 35.3 487641 2346
d 1.003256 19 35 tcp 1500 ------N 7 23.0 35.3 489101 2348
d 1.003256 19 35 tcp 1500 ------N 7 23.0 35.3 490561 2349
d 1.003257 19 35 tcp 1500 ------N 7 23.0 35.3 493481 2352
d 1.003257 19 35 tcp 1500 ------N 7 23.0 35.3 494941 2354
d 1.003257 19 35 tcp 1500 ------N 7 23.0 35.3 496401 2355
d 1.003281 19 35 tcp 1500 ------N 6 22.0 35.2 195641 2523
d 1.003282 19 35 tcp 1500 ------N 6 22.0 35.2 198561 2527
d 1.003283 19 35 tcp 1500 ------N 6 22.0 35.2 201481 2531
d 1.003283 19 35 tcp 1500 ------N 6 22.0 35.2 204401 2535
d 1.003284 19 35 tcp 1500 ------N 6 22.0 35.2 207321 2539
d 1.003284 19 35 tcp 1500 ------N 6 22.0 35.2 210241 2543
d 1.003285 19 35 tcp 1500 ------N 6 22.0 35.2 213161 2549
d 1.003286 19 35 tcp 1500 ------N 6 22.0 35.2 216081 2556
d 1.003287 19 35 tcp 1500 ------N 6 22.0 35.2 219001 2563
d 1.003288 19 35 tcp 1500 ------N 6 22.0 35.2 221921 2570
d 1.003289 19 35 tcp 1500 ------N 6 22.0 35.2 224841 2577
d 1.003289 19 35 tcp 1500 ------N 6 22.0 35.2 227761 2584
d 1.00329 19 35 tcp 1500 ------N 6 22.0 35.2 230681 2591
d 1.003291 19 35 tcp 1500 ------N 6 22.0 35.2 233601 2598
d 1.003292 19 35 tcp 1500 ------N 6 22.0 35.2 236521 2605
d 1.003293 19 35 tcp 1500 ------N 6 22.0 35.2 239441 2609
d 1.003293 19 35 tcp 1500 ------N 6 22.0 35.2 242361 2613
d 1.003294 19 35 tcp 1500 ------N 6 22.0 35.2 243821 2616
d 1.003294 19 35 tcp 1500 ------N 6 22.0 35.2 245281 2617
d 1.003295 19 35 tcp 1500 ------N 6 22.0 35.2 248201 2621
d 1.003295 19 35 tcp 1500 ------N 6 22.0 35.2 251121 2625
d 1.003296 19 35 tcp 1500 ------N 6 22.0 35.2 254041 2629
d 1.003296 19 35 tcp 1500 ------N 6 22.0 35.2 256961 2633
d 1.003297 19 35 tcp 1500 ------N 6 22.0 35.2 259881 2637
d 1.003298 19 35 tcp 1500 ------N 6 22.0 35.2 262801 2641
d 1.003298 19 35 tcp 1500 ------N 6 22.0 35.2 265721 2645
d 1.003302 19 35 tcp 1500 ------N 6 22.0 35.2 277401 2673
d 1.003304 19 35 tcp 1500 ------N 6 22.0 35.2 283241 2687
d 1.003305 19 35 tcp 1500 ------N 6 22.0 35.2 289081 2701
d 1.003307 19 35 tcp 1500 ------N 6 22.0 35.2 294921 2715
d 1.003308 19 35 tcp 1500 ------N 6 22.0 35.2 297841 2721
d 1.003308 19 35 tcp 1500 ------N 6 22.0 35.2 300761 2727
d 1.003309 19 35 tcp 1500 ------N 6 22.0 35.2 303681 2733
d 1.00331 19 35 tcp 1500 ------N 6 22.0 35.2 306601 2739
d 1.00331 19 35 tcp 1500 ------N 6 22.0 35.2 309521 2745
d 1.003311 19 35 tcp 1500 ------N 6 22.0 35.2 312441 2751
d 1.003311 19 35 tcp 1500 ------N 6 22.0 35.2 315361 2757
d 1.003312 19 35 tcp 1500 ------N 6 22.0 35.2 318281 2760
d 1.003312 19 35 tcp 1500 ------N 6 22.0 35.2 321201 2766
d 1.003313 19 35 tcp 1500 ------N 6 22.0 35.2 322661 2771
d 1.003313 19 35 tcp 1500 ------N 6 22.0 35.2 324121 2772
d 1.003313 19 35 tcp 1500 ------N 6 22.0 35.2 327041 2775
d 1.003314 19 35 tcp 1500 ------N 6 22.0 35.2 328501 2780
d 1.003314 19 35 tcp 1500 ------N 6 22.0 35.2 329961 2781
d 1.003314 19 35 tcp 1500 ------N 6 22.0 35.2 332881 2787
d 1.003315 19 35 tcp 1500 ------N 6 22.0 35.2 335801 2793
d 1.003315 19 35 tcp 1500 ------N 6 22.0 35.2 337261 2798
d 1.003316 19 35 tcp 1500 ------N 6 22.0 35.2 338721 2799
d 1.003316 19 35 tcp 1500 ------N 6 22.0 35.2 341641 2805
d 1.003317 19 35 tcp 1500 ------N 6 22.0 35.2 344561 2811
d 1.003317 19 35 tcp 1500 ------N 6 22.0 35.2 347481 2817
d 1.003318 19 35 tcp 1500 ------N 6 22.0 35.2 350401 2823
d 1.003319 19 35 tcp 1500 ------N 6 22.0 35.2 353321 2829
d 1.003319 19 35 tcp 1500 ------N 6 22.0 35.2 356241 2835
d 1.00332 19 35 tcp 1500 ------N 6 22.0 35.2 359161 2841
d 1.00332 19 35 tcp 1500 ------N 6 22.0 35.2 362081 2847
d 1.003321 19 35 tcp 1500 ------N 6 22.0 35.2 365001 2853
d 1.003322 19 35 tcp 1500 ------N 6 22.0 35.2 367921 2859
d 1.003322 19 35 tcp 1500 ------N 6 22.0 35.2 370841 2865
d 1.003323 19 35 tcp 1500 ------N 6 22.0 35.2 373761 2871
d 1.003323 19 35 tcp 1500 ------N 6 22.0 35.2 376681 2877
d 1.003324 19 35 tcp 1500 ------N 6 22.0 35.2 379601 2883
d 1.003325 19 35 tcp 1500 ------N 6 22.0 35.2 382521 2889
d 1.003325 19 35 tcp 1500 ------N 6 22.0 35.2 385441 2895
d 1.003327 19 35 tcp 1500 ------N 6 22.0 35.2 391281 2913
d 1.003336 19 35 tcp 1500 ------N 5 21.0 35.1 198561 2979
d 1.003337 19 35 tcp 1500 ------N 5 21.0 35.1 201481 2983
d 1.003338 19 35 tcp 1500 ------N 5 21.0 35.1 204401 2987
d 1.003338 19 35 tcp 1500 ------N 5 21.0 35.1 207321 2991
d 1.003339 19 35 tcp 1500 ------N 5 21.0 35.1 210241 2995
d 1.003339 19 35 tcp 1500 ------N 5 21.0 35.1 213161 2999
d 1.00334 19 35 tcp 1500 ------N 5 21.0 35.1 216081 3006
d 1.003341 19 35 tcp 1500 ------N 5 21.0 35.1 219001 3013
d 1.003342 19 35 tcp 1500 ------N 5 21.0 35.1 221921 3020
d 1.003343 19 35 tcp 1500 ------N 5 21.0 35.1 224841 3027
d 1.003344 19 35 tcp 1500 ------N 5 21.0 35.1 227761 3034
d 1.003345 19 35 tcp 1500 ------N 5 21.0 35.1 230681 3041
d 1.003346 19 35 tcp 1500 ------N 5 21.0 35.1 233601 3048
d 1.003347 19 35 tcp 1500 ------N 5 21.0 35.1 236521 3055
d 1.003347 19 35 tcp 1500 ------N 5 21.0 35.1 239441 3059
d 1.003348 19 35 tcp 1500 ------N 5 21.0 35.1 240901 3062
d 1.003348 19 35 tcp 1500 ------N 5 21.0 35.1 242361 3063
d 1.003348 19 35 tcp 1500 ------N 5 21.0 35.1 245281 3067
d 1.003349 19 35 tcp 1500 ------N 5 21.0 35.1 248201 3071
d 1.003349 19 35 tcp 1500 ------N 5 21.0 35.1 249661 3074
d 1.00335 19 35 tcp 1500 ------N 5 21.0 35.1 251121 3075
d 1.00335 19 35 tcp 1500 ------N 5 21.0 35.1 254041 3079
d 1.003351 19 35 tcp 1500 ------N 5 21.0 35.1 256961 3083
d 1.003351 19 35 tcp 1500 ------N 5 21.0 35.1 258421 3086
d 1.003351 19 35 tcp 1500 ------N 5 21.0 35.1 259881 3087
d 1.003352 19 35 tcp 1500 ------N 5 21.0 35.1 262801 3091
d 1.003353 19 35 tcp 1500 ------N 5 21.0 35.1 265721 3095
d 1.003353 19 35 tcp 1500 ------N 5 21.0 35.1 267181 3098
d 1.003353 19 35 tcp 1500 ------N 5 21.0 35.1 268641 3099
d 1.003354 19 35 tcp 1500 ------N 5 21.0 35.1 271561 3106
d 1.003355 19 35 tcp 1500 ------N 5 21.0 35.1 274481 3113
d 1.003356 19 35 tcp 1500 ------N 5 21.0 35.1 277401 3120
d 1.003357 19 35 tcp 1500 ------N 5 21.0 35.1 280321 3127
d 1.003358 19 35 tcp 1500 ------N 5 21.0 35.1 283241 3134
d 1.003359 19 35 tcp 1500 ------N 5 21.0 35.1 286161 3141
d 1.003359 19 35 tcp 1500 ------N 5 21.0 35.1 289081 3148
d 1.00336 19 35 tcp 1500 ------N 5 21.0 35.1 292001 3155
d 1.003361 19 35 tcp 1500 ------N 5 21.0 35.1 294921 3162
d 1.003362 19 35 tcp 1500 ------N 5 21.0 35.1 297841 3169
d 1.003363 19 35 tcp 1500 ------N 5 21.0 35.1 300761 3176
d 1.003364 19 35 tcp 1500 ------N 5 21.0 35.1 303681 3183
d 1.003365 19 35 tcp 1500 ------N 5 21.0 35.1 306601 3190
d 1.003366 19 35 tcp 1500 ------N 5 21.0 35.1 309521 3197
d 1.003367 19 35 tcp 1500 ------N 5 21.0 35.1 312441 3204
d 1.003368 19 35 tcp 1500 ------N 5 21.0 35.1 315361 3211
d 1.003368 19 35 tcp 1500 ------N 5 21.0 35.1 318281 3218
d 1.003369 19 35 tcp 1500 ------N 5 21.0 35.1 321201 3225
d 1.00337 19 35 tcp 1500 ------N 5 21.0 35.1 324121 3232
d 1.003372 19 35 tcp 1500 ------N 5 21.0 35.1 329961 3246
d 1.003374 19 35 tcp 1500 ------N 5 21.0 35.1 335801 3260
d 1.003376 19 35 tcp 1500 ------N 5 21.0 35.1 341641 3274
d 1.003377 19 35 tcp 1500 ------N 5 21.0 35.1 347481 3288
d 1.003379 19 35 tcp 1500 ------N 5 21.0 35.1 353321 3302
d 1.003381 19 35 tcp 1500 ------N 5 21.0 35.1 359161 3317
d 1.003382 19 35 tcp 1500 ------N 5 21.0 35.1 362081 3325
d 1.003383 19 35 tcp 1500 ------N 5 21.0 35.1 366461 3339
d 1.003383 19 35 tcp 1500 ------N 5 21.0 35.1 367921 3340
d 1.003384 19 35 tcp 1500 ------N 5 21.0 35.1 370841 3346
d 1.003385 19 35 tcp 1500 ------N 5 21.0 35.1 373761 3352
d 1.003385 19 35 tcp 1500 ------N 5 21.0 35.1 375221 3357
d 1.003385 19 35 tcp 1500 ------N 5 21.0 35.1 376681 3358
d 1.003386 19 35 tcp 1500 ------N 5 21.0 35.1 379601 3364
d 1.003386 19 35 tcp 1500 ------N 5 21.0 35.1 382521 3370
d 1.003387 19 35 tcp 1500 ------N 5 21.0 35.1 385441 3376
d 1.003388 19 35 tcp 1500 ------N 5 21.0 35.1 388361 3382
d 1.003388 19 35 tcp 1500 ------N 5 21.0 35.1 391281 3388
d 1.003389 19 35 tcp 1500 ------N 5 21.0 35.1 394201 3394
d 1.003389 19 35 tcp 1500 ------N 5 21.0 35.1 397121 3400
d 1.003396 19 35 tcp 1500 ------N 4 20.0 35.0 204401 3450
d 1.003397 19 35 tcp 1500 ------N 4 20.0 35.0 207321 3457
d 1.003398 19 35 tcp 1500 ------N 4 20.0 35.0 210241 3464
d 1.003399 19 35 tcp 1500 ------N 4 20.0 35.0 211701 3467
d 1.003399 19 35 tcp 1500 ------N 4 20.0 35.0 213161 3468
d 1.003399 19 35 tcp 1500 ------N 4 20.0 35.0 216081 3472
d 1.0034 19 35 tcp 1500 ------N 4 20.0 35.0 219001 3476
d 1.0034 19 35 tcp 1500 ------N 4 20.0 35.0 220461 3479
d 1.003401 19 35 tcp 1500 ------N 4 20.0 35.0 221921 3480
d 1.003401 19 35 tcp 1500 ------N 4 20.0 35.0 224841 3484
d 1.003402 19 35 tcp 1500 ------N 4 20.0 35.0 227761 3488
d 1.003402 19 35 tcp 1500 ------N 4 20.0 35.0 229221 3491
d 1.003402 19 35 tcp 1500 ------N 4 20.0 35.0 230681 3492
d 1.003403 19 35 tcp 1500 ------N 4 20.0 35.0 233601 3496
d 1.003404 19 35 tcp 1500 ------N 4 20.0 35.0 236521 3500
d 1.003404 19 35 tcp 1500 ------N 4 20.0 35.0 239441 3504
d 1.003405 19 35 tcp 1500 ------N 4 20.0 35.0 242361 3508
d 1.003405 19 35 tcp 1500 ------N 4 20.0 35.0 245281 3512
d 1.003406 19 35 tcp 1500 ------N 4 20.0 35.0 248201 3516
d 1.003407 19 35 tcp 1500 ------N 4 20.0 35.0 251121 3520
d 1.003407 19 35 tcp 1500 ------N 4 20.0 35.0 254041 3524
d 1.003408 19 35 tcp 1500 ------N 4 20.0 35.0 256961 3528
d 1.003408 19 35 tcp 1500 ------N 4 20.0 35.0 259881 3532
d 1.00341 19 35 tcp 1500 ------N 4 20.0 35.0 265721 3546
d 1.003411 19 35 tcp 1500 ------N 4 20.0 35.0 268641 3553
d 1.003412 19 35 tcp 1500 ------N 4 20.0 35.0 271561 3560
d 1.003413 19 35 tcp 1500 ------N 4 20.0 35.0 274481 3567
d 1.003414 19 35 tcp 1500 ------N 4 20.0 35.0 277401 3574
d 1.003415 19 35 tcp 1500 ------N 4 20.0 35.0 280321 3581
d 1.003416 19 35 tcp 1500 ------N 4 20.0 35.0 283241 3588
d 1.003416 19 35 tcp 1500 ------N 4 20.0 35.0 286161 3592
d 1.003417 19 35 tcp 1500 ------N 4 20.0 35.0 287621 3595
d 1.003417 19 35 tcp 1500 ------N 4 20.0 35.0 289081 3596
d 1.003417 19 35 tcp 1500 ------N 4 20.0 35.0 292001 3600
d 1.003418 19 35 tcp 1500 ------N 4 20.0 35.0 294921 3604
d 1.003418 19 35 tcp 1500 ------N 4 20.0 35.0 296381 3607
d 1.003419 19 35 tcp 1500 ------N 4 20.0 35.0 297841 3608
d 1.003419 19 35 tcp 1500 ------N 4 20.0 35.0 300761 3612
d 1.00342 19 35 tcp 1500 ------N 4 20.0 35.0 303681 3616
d 1.00342 19 35 tcp 1500 ------N 4 20.0 35.0 305141 3619
d 1.00342 19 35 tcp 1500 ------N 4 20.0 35.0 306601 3620
d 1.003421 19 35 tcp 1500 ------N 4 20.0 35.0 309521 3624
d 1.003422 19 35 tcp 1500 ------N 4 20.0 35.0 312441 3628
d 1.003422 19 35 tcp 1500 ------N 4 20.0 35.0 313901 3631
d 1.003422 19 35 tcp 1500 ------N 4 20.0 35.0 315361 3632
d 1.003423 19 35 tcp 1500 ------N 4 20.0 35.0 318281 3636
d 1.003424 19 35 tcp 1500 ------N 4 20.0 35.0 321201 3643
d 1.003425 19 35 tcp 1500 ------N 4 20.0 35.0 324121 3650
d 1.003425 19 35 tcp 1500 ------N 4 20.0 35.0 327041 3657
d 1.003426 19 35 tcp 1500 ------N 4 20.0 35.0 329961 3664
d 1.003427 19 35 tcp 1500 ------N 4 20.0 35.0 332881 3671
d 1.003428 19 35 tcp 1500 ------N 4 20.0 35.0 335801 3678
d 1.003429 19 35 tcp 1500 ------N 4 20.0 35.0 338721 3685
d 1.003431 19 35 tcp 1500 ------N 4 20.0 35.0 344561 3699
d 1.003433 19 35 tcp 1500 ------N 4 20.0 35.0 350401 3713
d 1.003434 19 35 tcp 1500 ------N 4 20.0 35.0 356241 3727
d 1.003436 19 35 tcp 1500 ------N 4 20.0 35.0 362081 3741
d 1.003438 19 35 tcp 1500 ------N 4 20.0 35.0 367921 3755
d 1.00344 19 35 tcp 1500 ------N 4 20.0 35.0 373761 3769
d 1.003442 19 35 tcp 1500 ------N 4 20.0 35.0 379601 3785
d 1.003442 19 35 tcp 1500 ------N 4 20.0 35.0 382521 3791
d 1.003443 19 35 tcp 1500 ------N 4 20.0 35.0 385441 3797
d 1.003443 19 35 tcp 1500 ------N 4 20.0 35.0 386901 3802
d 1.003443 19 35 tcp 1500 ------N 4 20.0 35.0 388361 3803
d 1.003444 19 35 tcp 1500 ------N 4 20.0 35.0 391281 3809
d 1.003445 19 35 tcp 1500 ------N 4 20.0 35.0 394201 3815
d 1.003445 19 35 tcp 1500 ------N 4 20.0 35.0 397121 3821
d 1.003446 19 35 tcp 1500 ------N 4 20.0 35.0 400041 3827
d 1.003446 19 35 tcp 1500 ------N 4 20.0 35.0 402961 3833
d 1.003447 19 35 tcp 1500 ------N 4 20.0 35.0 405881 3839
d 1.003448 19 35 tcp 1500 ------N 4 20.0 35.0 408801 3845
d 1.003543 19 35 tcp 1500 ------N 5 21.0 35.1 521221 4510
d 1.003544 19 35 tcp 1500 ------N 6 22.0 35.2 692041 4512
d 1.003559 19 35 tcp 1500 ------N 6 22.0 35.2 724161 4624
d 1.00356 19 35 tcp 1500 ------N 5 21.0 35.1 554801 4626
d 1.003561 19 35 tcp 1500 ------N 6 22.0 35.2 728541 4636
d 1.003561 19 35 tcp 1500 ------N 5 21.0 35.1 559181 4638
d 1.003563 19 35 tcp 1500 ------N 6 22.0 35.2 732921 4648
d 1.003563 19 35 tcp 1500 ------N 5 21.0 35.1 563561 4650
d 1.003596 19 35 tcp 1500 ------N 6 22.0 35.2 788401 4905
d 1.003608 19 35 tcp 1500 ------N 4 20.0 35.0 496401 4975
d 1.003608 19 35 tcp 1500 ------N 4 20.0 35.0 499321 4980
d 1.003609 19 35 tcp 1500 ------N 4 20.0 35.0 502241 4985
d 1.00361 19 35 tcp 1500 ------N 4 20.0 35.0 505161 4990
d 1.003611 19 35 tcp 1500 ------N 4 20.0 35.0 508081 4995
d 1.003612 19 35 tcp 1500 ------N 4 20.0 35.0 511001 5000
d 1.004289 19 35 tcp 1500 ------N 10 20.4 35.7 178121 9569
d 1.00429 19 35 tcp 1500 ------N 10 20.4 35.7 181041 9578
d 1.004292 19 35 tcp 1500 ------N 10 20.4 35.7 183961 9587
d 1.004293 19 35 tcp 1500 ------N 10 20.4 35.7 186881 9596
d 1.004294 19 35 tcp 1500 ------N 10 20.4 35.7 189801 9605
d 1.004295 19 35 tcp 1500 ------N 10 20.4 35.7 192721 9614
d 1.004296 19 35 tcp 1500 ------N 10 20.4 35.7 195641 9623
d 1.004298 19 35 tcp 1500 ------N 10 20.4 35.7 198561 9632
d 1.004299 19 35 tcp 1500 ------N 10 20.4 35.7 201481 9641
d 1.0043 19 35 tcp 1500 ------N 10 20.4 35.7 204401 9650
d 1.004301 19 35 tcp 1500 ------N 10 20.4 35.7 207321 9659
d 1.004302 19 35 tcp 1500 ------N 10 20.4 35.7 210241 9668
d 1.004304 19 35 tcp 1500 ------N 10 20.4 35.7 213161 9677
d 1.004305 19 35 tcp 1500 ------N 10 20.4 35.7 216081 9687
d 1.004306 19 35 tcp 1500 ------N 10 20.4 35.7 219001 9696
d 1.004307 19 35 tcp 1500 ------N 10 20.4 35.7 221921 9706
d 1.004308 19 35 tcp 1500 ------N 10 20.4 35.7 224841 9715
d 1.00431 19 35 tcp 1500 ------N 10 20.4 35.7 227761 9724
d 1.004311 19 35 tcp 1500 ------N 10 20.4 35.7 230681 9733
d 1.004312 19 35 tcp 1500 ------N 10 20.4 35.7 233601 9742
d 1.004313 19 35 tcp 1500 ------N 10 20.4 35.7 236521 9751
d 1.004314 19 35 tcp 1500 ------N 10 20.4 35.7 239441 9760
d 1.004316 19 35 tcp 1500 ------N 10 20.4 35.7 242361 9769
d 1.004317 19 35 tcp 1500 ------N 10 20.4 35.7 245281 9778
d 1.004318 19 35 tcp 1500 ------N 10 20.4 35.7 248201 9787
d 1.004319 19 35 tcp 1500 ------N 10 20.4 35.7 251121 9796
d 1.00432 19 35 tcp 1500 ------N 10 20.4 35.7 254041 9805
d 1.004322 19 35 tcp 1500 ------N 10 20.4 35.7 256961 9814
d 1.004323 19 35 tcp 1500 ------N 10 20.4 35.7 259881 9823
d 1.004324 19 35 tcp 1500 ------N 10 20.4 35.7 262801 9832
d 1.004325 19 35 tcp 1500 ------N 10 20.4 35.7 265721 9841
d 1.004326 19 35 tcp 1500 ------N 10 20.4 35.7 268641 9850
d 1.004328 19 35 tcp 1500 ------N 10 20.4 35.7 271561 9859
d 1.004329 19 35 tcp 1500 ------N 10 20.4 35.7 274481 9868
d 1.00433 19 35 tcp 1500 ------N 10 20.4 35.7 277401 9877
d 1.004331 19 35 tcp 1500 ------N 10 20.4 35.7 280321 9886
d 1.004332 19 35 tcp 1500 ------N 10 20.4 35.7 281781 9892
d 1.004332 19 35 tcp 1500 ------N 10 20.4 35.7 283241 9893
d 1.004333 19 35 tcp 1500 ------N 10 20.4 35.7 286161 9902
d 1.004334 19 35 tcp 1500 ------N 10 20.4 35.7 289081 9911
d 1.004336 19 35 tcp 1500 ------N 10 20.4 35.7 292001 9920
d 1.004337 19 35 tcp 1500 ------N 10 20.4 35.7 294921 9929
d 1.004338 19 35 tcp 1500 ------N 10 20.4 35.7 297841 9939
d 1.004339 19 35 tcp 1500 ------N 10 20.4 35.7 300761 9948
d 1.00434 19 35 tcp 1500 ------N 10 20.4 35.7 303681 9957
d 1.004342 19 35 tcp 1500 ------N 10 20.4 35.7 306601 9966
d 1.004343 19 35 tcp 1500 ------N 10 20.4 35.7 309521 9975
d 1.004344 19 35 tcp 1500 ------N 10 20.4 35.7 312441 9984
d 1.004345 19 35 tcp 1500 ------N 10 20.4 35.7 315361 9993
d 1.004346 19 35 tcp 1500 ------N 10 20.4 35.7 318281 10002
d 1.004348 19 35 tcp 1500 ------N 10 20.4 35.7 321201 10011
d 1.004349 19 35 tcp 1500 ------N 10 20.4 35.7 324121 10020
d 1.00435 19 35 tcp 1500 ------N 10 20.4 35.7 327041 10029
d 1.004351 19 35 tcp 1500 ------N 10 20.4 35.7 329961 10038
d 1.004352 19 35 tcp 1500 ------N 10 20.4 35.7 332881 10047
d 1.004354 19 35 tcp 1500 ------N 10 20.4 35.7 335801 10056
d 1.004355 19 35 tcp 1500 ------N 10 20.4 35.7 338721 10065
d 1.004356 19 35 tcp 1500 ------N 10 20.4 35.7 341641 10074
d 1.004357 19 35 tcp 1500 ------N 10 20.4 35.7 344561 10083
d 1.004358 19 35 tcp 1500 ------N 10 20.4 35.7 347481 10092
d 1.00436 19 35 tcp 1500 ------N 10 20.4 35.7 350401 10101
d 1.004361 19 35 tcp 1500 ------N 10 20.4 35.7 353321 10110
d 1.004362 19 35 tcp 1500 ------N 10 20.4 35.7 356241 10119
d 1.005125 19 35 tcp 1500 ------N 5 21.0 35.1 2975481 15194
d 1.005148 19 35 tcp 1500 ------N 6 22.0 35.2 3182801 15349
d 1.005168 19 35 tcp 1500 ------N 4 20.0 35.0 2902481 15486
d 1.006731 19 35 tcp 1500 ------N 5 21.0 35.1 5523181 25914
d 1.006754 19 35 tcp 1500 ------N 6 22.0 35.2 5730501 26069
d 1.006775 19 35 tcp 1500 ------N 4 20.0 35.0 5450181 26206
d 1.007044 19 35 tcp 1500 ------N 12 20.5 35.8 186881 27957
d 1.007044 19 35 tcp 1500 ------N 12 20.5 35.8 189801 27964
d 1.007045 19 35 tcp 1500 ------N 12 20.5 35.8 192721 27971
d 1.007046 19 35 tcp 1500 ------N 12 20.5 35.8 195641 27978
d 1.007047 19 35 tcp 1500 ------N 12 20.5 35.8 198561 27985
d 1.007048 19 35 tcp 1500 ------N 12 20.5 35.8 201481 27992
d 1.007049 19 35 tcp 1500 ------N 12 20.5 35.8 204401 27999
d 1.00705 19 35 tcp 1500 ------N 12 20.5 35.8 207321 28006
d 1.007051 19 35 tcp 1500 ------N 12 20.5 35.8 210241 28013
d 1.007052 19 35 tcp 1500 ------N 12 20.5 35.8 213161 28020
d 1.007053 19 35 tcp 1500 ------N 12 20.5 35.8 216081 28027
d 1.007053 19 35 tcp 1500 ------N 12 20.5 35.8 219001 28034
d 1.007054 19 35 tcp 1500 ------N 12 20.5 35.8 221921 28041
d 1.007055 19 35 tcp 1500 ------N 12 20.5 35.8 224841 28046
d 1.007056 19 35 tcp 1500 ------N 12 20.5 35.8 227761 28053
d 1.007057 19 35 tcp 1500 ------N 12 20.5 35.8 230681 28060
d 1.007058 19 35 tcp 1500 ------N 12 20.5 35.8 233601 28067
d 1.007059 19 35 tcp 1500 ------N 12 20.5 35.8 236521 28074
d 1.007059 19 35 tcp 1500 ------N 12 20.5 35.8 239441 28081
d 1.00706 19 35 tcp 1500 ------N 12 20.5 35.8 242361 28088
d 1.007061 19 35 tcp 1500 ------N 12 20.5 35.8 245281 28095
d 1.007062 19 35 tcp 1500 ------N 12 20.5 35.8 248201 28102
d 1.007063 19 35 tcp 1500 ------N 12 20.5 35.8 251121 28109
d 1.007064 19 35 tcp 1500 ------N 12 20.5 35.8 254041 28117
d 1.007065 19 35 tcp 1500 ------N 12 20.5 35.8 256961 28124
d 1.007066 19 35 tcp 1500 ------N 12 20.5 35.8 259881 28131
d 1.007067 19 35 tcp 1500 ------N 12 20.5 35.8 262801 28138
d 1.007068 19 35 tcp 1500 ------N 12 20.5 35.8 265721 28145
d 1.007068 19 35 tcp 1500 ------N 12 20.5 35.8 268641 28152
d 1.007069 19 35 tcp 1500 ------N 12 20.5 35.8 271561 28159
d 1.00707 19 35 tcp 1500 ------N 12 20.5 35.8 274481 28166
d 1.007071 19 35 tcp 1500 ------N 12 20.5 35.8 277401 28173
d 1.007072 19 35 tcp 1500 ------N 12 20.5 35.8 280321 28180
d 1.007073 19 35 tcp 1500 ------N 12 20.5 35.8 283241 28187
d 1.007074 19 35 tcp 1500 ------N 12 20.5 35.8 286161 28194
d 1.007075 19 35 tcp 1500 ------N 12 20.5 35.8 289081 28201
d 1.007076 19 35 tcp 1500 ------N 12 20.5 35.8 292001 28208
d 1.007077 19 35 tcp 1500 ------N 12 20.5 35.8 294921 28215
d 1.007077 19 35 tcp 1500 ------N 12 20.5 35.8 297841 28223
d 1.007078 19 35 tcp 1500 ------N 12 20.5 35.8 300761 28230
d 1.007079 19 35 tcp 1500 ------N 12 20.5 35.8 303681 28237
d 1.00708 19 35 tcp 1500 ------N 12 20.5 35.8 306601 28244
d 1.007081 19 35 tcp 1500 ------N 12 20.5 35.8 309521 28251
d 1.007082 19 35 tcp 1500 ------N 12 20.5 35.8 312441 28258
d 1.007083 19 35 tcp 1500 ------N 12 20.5 35.8 315361 28265
d 1.007084 19 35 tcp 1500 ------N 12 20.5 35.8 318281 28272
d 1.007085 19 35 tcp 1500 ------N 12 20.5 35.8 321201 28279
d 1.007086 19 35 tcp 1500 ------N 12 20.5 35.8 324121 28286
d 1.007086 19 35 tcp 1500 ------N 12 20.5 35.8 327041 28293
d 1.007087 19 35 tcp 1500 ------N 12 20.5 35.8 329961 28300
d 1.007088 19 35 tcp 1500 ------N 12 20.5 35.8 332881 28307
d 1.007089 19 35 tcp 1500 ------N 12 20.5 35.8 335801 28314
d 1.00709 19 35 tcp 1500 ------N 12 20.5 35.8 338721 28321
d 1.007091 19 35 tcp 1500 ------N 12 20.5 35.8 341641 28328
d 1.007092 19 35 tcp 1500 ------N 12 20.5 35.8 344561 28335
d 1.007093 19 35 tcp 1500 ------N 12 20.5 35.8 347481 28342
d 1.007094 19 35 tcp 1500 ------N 12 20.5 35.8 350401 28349
d 1.007095 19 35 tcp 1500 ------N 12 20.5 35.8 353321 28356
d 1.007095 19 35 tcp 1500 ------N 12 20.5 35.8 356241 28363
d 1.007096 19 35 tcp 1500 ------N 12 20.5 35.8 359161 28370
d 1.007097 19 35 tcp 1500 ------N 12 20.5 35.8 362081 28377
d 1.007098 19 35 tcp 1500 ------N 12 20.5 35.8 365001 28384
d 1.007099 19 35 tcp 1500 ------N 12 20.5 35.8 367921 28391
d 1.0071 19 35 tcp 1500 ------N 12 20.5 35.8 370841 28398
d 1.007101 19 35 tcp 1500 ------N 12 20.5 35.8 373761 28406
d 1.007589 19 35 tcp 1500 ------N 12 20.5 35.8 1370941 31637
d 1.007813 19 35 tcp 1500 ------N 22 21.3 35.13 186881 33178
d 1.007814 19 35 tcp 1500 ------N 22 21.3 35.13 189801 33185
d 1.007815 19 35 tcp 1500 ------N 22 21.3 35.13 192721 33192
d 1.007816 19 35 tcp 1500 ------N 22 21.3 35.13 195641 33199
d 1.007817 19 35 tcp 1500 ------N 22 21.3 35.13 198561 33206
d 1.007818 19 35 tcp 1500 ------N 22 21.3 35.13 201481 33213
d 1.007819 19 35 tcp 1500 ------N 22 21.3 35.13 204401 33220
d 1.007819 19 35 tcp 1500 ------N 22 21.3 35.13 207321 33227
d 1.00782 19 35 tcp 1500 ------N 22 21.3 35.13 210241 33234
d 1.007821 19 35 tcp 1500 ------N 22 21.3 35.13 213161 33241
d 1.007822 19 35 tcp 1500 ------N 22 21.3 35.13 216081 33248
d 1.007823 19 35 tcp 1500 ------N 22 21.3 35.13 219001 33255
d 1.007824 19 35 tcp 1500 ------N 22 21.3 35.13 221921 33262
d 1.007825 19 35 tcp 1500 ------N 22 21.3 35.13 224841 33269
d 1.007826 19 35 tcp 1500 ------N 22 21.3 35.13 227761 33276
d 1.007827 19 35 tcp 1500 ------N 22 21.3 35.13 230681 33283
d 1.007828 19 35 tcp 1500 ------N 22 21.3 35.13 233601 33290
d 1.007828 19 35 tcp 1500 ------N 22 21.3 35.13 236521 33295
d 1.007829 19 35 tcp 1500 ------N 22 21.3 35.13 239441 33302
d 1.00783 19 35 tcp 1500 ------N 22 21.3 35.13 242361 33309
d 1.007831 19 35 tcp 1500 ------N 22 21.3 35.13 245281 33316
d 1.007832 19 35 tcp 1500 ------N 22 21.3 35.13 248201 33323
d 1.007833 19 35 tcp 1500 ------N 22 21.3 35.13 251121 33330
d 1.007834 19 35 tcp 1500 ------N 22 21.3 35.13 254041 33337
d 1.007834 19 35 tcp 1500 ------N 22 21.3 35.13 256961 33344
d 1.007835 19 35 tcp 1500 ------N 22 21.3 35.13 259881 33352
d 1.007836 19 35 tcp 1500 ------N 22 21.3 35.13 262801 33359
d 1.007837 19 35 tcp 1500 ------N 22 21.3 35.13 265721 33366
d 1.007838 19 35 tcp 1500 ------N 22 21.3 35.13 268641 33373
d 1.007839 19 35 tcp 1500 ------N 22 21.3 35.13 271561 33380
d 1.00784 19 35 tcp 1500 ------N 22 21.3 35.13 274481 33387
d 1.007841 19 35 tcp 1500 ------N 22 21.3 35.13 277401 33394
d 1.007842 19 35 tcp 1500 ------N 22 21.3 35.13 280321 33401
d 1.007843 19 35 tcp 1500 ------N 22 21.3 35.13 283241 33408
d 1.007843 19 35 tcp 1500 ------N 22 21.3 35.13 286161 33415
d 1.007844 19 35 tcp 1500 ------N 22 21.3 35.13 289081 33422
d 1.007845 19 35 tcp 1500 ------N 22 21.3 35.13 292001 33429
d 1.007846 19 35 tcp 1500 ------N 22 21.3 35.13 294921 33436
d 1.007847 19 35 tcp 1500 ------N 22 21.3 35.13 297841 33444
d 1.007848 19 35 tcp 1500 ------N 22 21.3 35.13 300761 33451
d 1.007849 19 35 tcp 1500 ------N 22 21.3 35.13 303681 33458
d 1.00785 19 35 tcp 1500 ------N 22 21.3 35.13 306601 33465
d 1.007851 19 35 tcp 1500 ------N 22 21.3 35.13 309521 33472
d 1.007852 19 35 tcp 1500 ------N 22 21.3 35.13 312441 33479
d 1.007852 19 35 tcp 1500 ------N 22 21.3 35.13 315361 33486
d 1.007853 19 35 tcp 1500 ------N 22 21.3 35.13 318281 33493
d 1.007854 19 35 tcp 1500 ------N 22 21.3 35.13 321201 33500
d 1.007855 19 35 tcp 1500 ------N 22 21.3 35.13 324121 33507
d 1.007856 19 35 tcp 1500 ------N 22 21.3 35.13 327041 33514
d 1.007857 19 35 tcp 1500 ------N 22 21.3 35.13 329961 33521
d 1.007858 19 35 tcp 1500 ------N 22 21.3 35.13 332881 33528
d 1.007859 19 35 tcp 1500 ------N 22 21.3 35.13 335801 33535
d 1.00786 19 35 tcp 1500 ------N 22 21.3 35.13 338721 33542
d 1.007861 19 35 tcp 1500 ------N 22 21.3 35.13 341641 33549
d 1.007861 19 35 tcp 1500 ------N 22 21.3 35.13 344561 33556
d 1.007862 19 35 tcp 1500 ------N 22 21.3 35.13 347481 33563
d 1.007863 19 35 tcp 1500 ------N 22 21.3 35.13 350401 33570
d 1.007864 19 35 tcp 1500 ------N 22 21.3 35.13 353321 33577