d 1.003269 19 35 tcp 1500 ------N 6 22.0 35.2 110961 2313
d 1.003269 19 35 tcp 1500 ------N 6 22.0 35.2 113881 2316
d 1.003284 19 35 tcp 1500 ------N 5 21.0 35.1 11681 2416
d 1.003284 19 35 tcp 1500 ------N 5 21.0 35.1 14601 2419
d 1.003285 19 35 tcp 1500 ------N 5 21.0 35.1 17521 2422
d 1.003285 19 35 tcp 1500 ------N 5 21.0 35.1 20441 2425
d 1.003381 19 35 tcp 1500 ------N 4 20.0 35.0 43801 3066
d 1.00339 19 35 tcp 1500 ------N 5 21.0 35.1 36501 3127
d 1.003401 19 35 tcp 1500 ------N 6 22.0 35.2 327041 3202
d 1.003401 19 35 tcp 1500 ------N 4 20.0 35.0 46721 3205
d 1.003401 19 35 tcp 1500 ------N 4 20.0 35.0 49641 3208
d 1.003402 19 35 tcp 1500 ------N 4 20.0 35.0 52561 3211
d 1.003402 19 35 tcp 1500 ------N 4 20.0 35.0 55481 3214
d 1.003402 19 35 tcp 1500 ------N 4 20.0 35.0 58401 3217
d 1.003403 19 35 tcp 1500 ------N 4 20.0 35.0 61321 3220
d 1.003403 19 35 tcp 1500 ------N 4 20.0 35.0 64241 3223
d 1.003403 19 35 tcp 1500 ------N 4 20.0 35.0 67161 3226
d 1.003404 19 35 tcp 1500 ------N 4 20.0 35.0 70081 3229
d 1.003404 19 35 tcp 1500 ------N 4 20.0 35.0 73001 3232
d 1.003404 19 35 tcp 1500 ------N 4 20.0 35.0 75921 3235
d 1.003404 19 35 tcp 1500 ------N 4 20.0 35.0 78841 3238
d 1.003405 19 35 tcp 1500 ------N 4 20.0 35.0 81761 3241
d 1.003405 19 35 tcp 1500 ------N 4 20.0 35.0 84681 3244
d 1.003405 19 35 tcp 1500 ------N 4 20.0 35.0 87601 3247
d 1.003601 19 35 tcp 1500 ------N 5 21.0 35.1 100741 4550
d 1.003612 19 35 tcp 1500 ------N 6 22.0 35.2 569401 4627
d 1.003612 19 35 tcp 1500 ------N 4 20.0 35.0 181041 4630
d 1.00383 19 35 tcp 1500 ------N 6 22.0 35.2 779641 6085
d 1.003842 19 35 tcp 1500 ------N 5 21.0 35.1 207321 6166
d 1.003855 19 35 tcp 1500 ------N 4 20.0 35.0 372301 6253
d 1.004053 19 35 tcp 1500 ------N 4 20.0 35.0 537281 7574
d 1.004062 19 35 tcp 1500 ------N 5 21.0 35.1 329961 7633
d 1.004074 19 35 tcp 1500 ------N 6 22.0 35.2 1000101 7712
d 1.004204 19 35 tcp 1500 ------N 4 20.0 35.0 627801 8589
d 1.004206 19 35 tcp 1500 ------N 10 20.4 35.7 5841 8602
d 1.004206 19 35 tcp 1500 ------N 10 20.4 35.7 8761 8605
d 1.004214 19 35 tcp 1500 ------N 5 21.0 35.1 408801 8660
d 1.004218 19 35 tcp 1500 ------N 8 20.3 35.6 23361 8685
d 1.004218 19 35 tcp 1500 ------N 8 20.3 35.6 26281 8688
d 1.004219 19 35 tcp 1500 ------N 8 20.3 35.6 29201 8691
d 1.004219 19 35 tcp 1500 ------N 8 20.3 35.6 32121 8694
d 1.004219 19 35 tcp 1500 ------N 8 20.3 35.6 35041 8697
d 1.00422 19 35 tcp 1500 ------N 8 20.3 35.6 37961 8700
d 1.00422 19 35 tcp 1500 ------N 8 20.3 35.6 40881 8703
d 1.00422 19 35 tcp 1500 ------N 8 20.3 35.6 43801 8706
d 1.004227 19 35 tcp 1500 ------N 6 22.0 35.2 1124201 8751
d 1.004412 19 35 tcp 1500 ------N 5 21.0 35.1 511001 9997
d 1.004421 19 35 tcp 1500 ------N 6 22.0 35.2 1264361 10058
d 1.004425 19 35 tcp 1500 ------N 4 20.0 35.0 750441 10081
d 1.004427 19 35 tcp 1500 ------N 10 20.4 35.7 56941 10096
d 1.004434 19 35 tcp 1500 ------N 14 22.3 35.9 5841 10143
d 1.004434 19 35 tcp 1500 ------N 14 22.3 35.9 8761 10146
d 1.004622 19 35 tcp 1500 ------N 4 20.0 35.0 865781 11403
d 1.004623 19 35 tcp 1500 ------N 10 20.4 35.7 119721 11414
d 1.004631 19 35 tcp 1500 ------N 5 21.0 35.1 614661 11469
d 1.004643 19 35 tcp 1500 ------N 6 22.0 35.2 1426421 11548
d 1.004818 19 35 tcp 1500 ------N 4 20.0 35.0 981121 12717
d 1.004822 19 35 tcp 1500 ------N 10 20.4 35.7 208781 12740
d 1.004829 19 35 tcp 1500 ------N 5 21.0 35.1 718321 12791
d 1.004839 19 35 tcp 1500 ------N 6 22.0 35.2 1556361 12860
d 1.005015 19 35 tcp 1500 ------N 4 20.0 35.0 1096461 14029
d 1.005027 19 35 tcp 1500 ------N 5 21.0 35.1 821981 14112
d 1.005036 19 35 tcp 1500 ------N 6 22.0 35.2 1673161 14173
d 1.00504 19 35 tcp 1500 ------N 10 20.4 35.7 310981 14202
d 1.005213 19 35 tcp 1500 ------N 10 20.4 35.7 397121 15353
d 1.005224 19 35 tcp 1500 ------N 5 21.0 35.1 925641 15432
d 1.005233 19 35 tcp 1500 ------N 6 22.0 35.2 1788501 15489
d 1.005368 19 35 tcp 1500 ------N 6 22.0 35.2 1851281 16390
d 1.005372 19 35 tcp 1500 ------N 4 20.0 35.0 1356341 16419
d 1.005386 19 35 tcp 1500 ------N 5 21.0 35.1 995721 16512
d 1.005528 19 35 tcp 1500 ------N 4 20.0 35.0 1465841 17463
d 1.005724 19 35 tcp 1500 ------N 4 20.0 35.0 1582641 18772
d 1.005736 19 35 tcp 1500 ------N 5 21.0 35.1 1213261 18855
d 1.005745 19 35 tcp 1500 ------N 6 22.0 35.2 2095101 18914
d 1.005962 19 35 tcp 1500 ------N 4 20.0 35.0 1718421 20363
d 1.005977 19 35 tcp 1500 ------N 5 21.0 35.1 1403061 20464
d 1.005986 19 35 tcp 1500 ------N 6 22.0 35.2 2286361 20523
d 1.006181 19 35 tcp 1500 ------N 16 22.4 35.10 102201 21729
d 1.006182 19 35 tcp 1500 ------N 16 22.4 35.10 105121 21732
d 1.006182 19 35 tcp 1500 ------N 16 22.4 35.10 108041 21735
d 1.006182 19 35 tcp 1500 ------N 16 22.4 35.10 110961 21738
d 1.006183 19 35 tcp 1500 ------N 16 22.4 35.10 113881 21741
d 1.006196 19 35 tcp 1500 ------N 4 20.0 35.0 1925741 21832
d 1.006198 19 35 tcp 1500 ------N 5 21.0 35.1 1619141 21847
d 1.006203 19 35 tcp 1500 ------N 6 22.0 35.2 2502441 21880
d 1.006597 19 35 tcp 1500 ------N 6 22.0 35.2 3105421 24331
d 1.006604 19 35 tcp 1500 ------N 4 20.0 35.0 2527261 24374
d 1.006614 19 35 tcp 1500 ------N 5 21.0 35.1 2265921 24445
d 1.006924 19 35 tcp 1500 ------N 4 20.0 35.0 3045561 26507
d 1.006932 19 35 tcp 1500 ------N 5 21.0 35.1 2785681 26566
d 1.006941 19 35 tcp 1500 ------N 12 20.5 35.8 1 26627
d 1.007169 19 35 tcp 1500 ------N 6 22.0 35.2 4185821 28146
d 1.007179 19 35 tcp 1500 ------N 4 20.0 35.0 3366761 28215
d 1.007186 19 35 tcp 1500 ------N 5 21.0 35.1 3106881 28260
d 1.007507 19 35 tcp 1500 ------N 4 20.0 35.0 3812061 30401
d 1.007514 19 35 tcp 1500 ------N 5 21.0 35.1 3552181 30450
d 1.00753 19 35 tcp 1500 ------N 6 22.0 35.2 4933341 30555
d 1.007779 19 35 tcp 1500 ------N 4 20.0 35.0 4204801 32217
d 1.007786 19 35 tcp 1500 ------N 5 21.0 35.1 3944921 32264
d 1.00779 19 35 tcp 1500 ------N 24 21.3 35.14 23361 32287
d 1.00779 19 35 tcp 1500 ------N 24 21.3 35.14 26281 32290
d 1.00779 19 35 tcp 1500 ------N 24 21.3 35.14 29201 32293
d 1.00779 19 35 tcp 1500 ------N 24 21.3 35.14 32121 32296
d 1.007791 19 35 tcp 1500 ------N 24 21.3 35.14 35041 32299
d 1.007791 19 35 tcp 1500 ------N 24 21.3 35.14 37961 32302
d 1.007791 19 35 tcp 1500 ------N 24 21.3 35.14 40881 32305
d 1.007792 19 35 tcp 1500 ------N 24 21.3 35.14 43801 32308
d 1.007802 19 35 tcp 1500 ------N 6 22.0 35.2 5435581 32375
d 1.00803 19 35 tcp 1500 ------N 4 20.0 35.0 4559581 33892
d 1.008035 19 35 tcp 1500 ------N 24 21.3 35.14 214621 33929
d 1.008041 19 35 tcp 1500 ------N 5 21.0 35.1 4299701 33968
d 1.008046 19 35 tcp 1500 ------N 6 22.0 35.2 5794741 34003
d 1.008297 19 35 tcp 1500 ------N 24 21.3 35.14 458441 35670
d 1.008307 19 35 tcp 1500 ------N 5 21.0 35.1 4635501 35737
d 1.008312 19 35 tcp 1500 ------N 6 22.0 35.2 6149521 35776
d 1.008517 19 35 tcp 1500 ------N 6 22.0 35.2 6359761 37139
d 1.008524 19 35 tcp 1500 ------N 4 20.0 35.0 5311481 37190
d 1.008529 19 35 tcp 1500 ------N 24 21.3 35.14 664301 37221
d 1.008537 19 35 tcp 1500 ------N 5 21.0 35.1 4873481 37278
d 1.008923 19 35 tcp 1500 ------N 24 21.3 35.14 1224941 39836
d 1.008932 19 35 tcp 1500 ------N 22 22.5 35.13 2921 39901
d 1.008935 19 35 tcp 1500 ------N 5 21.0 35.1 5466241 39920
d 1.008944 19 35 tcp 1500 ------N 6 22.0 35.2 6994861 39979
d 1.011638 19 35 tcp 1500 ------N 32 21.5 35.18 8761 49909
d 1.011649 19 35 tcp 1500 ------N 12 20.5 35.8 1195741 49984
d 1.011662 19 35 tcp 1500 ------N 32 21.5 35.18 11681 50071
d 1.011663 19 35 tcp 1500 ------N 32 21.5 35.18 14601 50074
d 1.011663 19 35 tcp 1500 ------N 32 21.5 35.18 17521 50077
d 1.01184 19 35 tcp 1500 ------N 38 23.5 35.21 29201 51263
d 1.011841 19 35 tcp 1500 ------N 38 23.5 35.21 32121 51266
d 1.011841 19 35 tcp 1500 ------N 38 23.5 35.21 35041 51269
d 1.011841 19 35 tcp 1500 ------N 38 23.5 35.21 37961 51272
d 1.011841 19 35 tcp 1500 ------N 38 23.5 35.21 40881 51275
d 1.011842 19 35 tcp 1500 ------N 38 23.5 35.21 43801 51278
d 1.011854 19 35 tcp 1500 ------N 32 21.5 35.18 51101 51359
d 1.011862 19 35 tcp 1500 ------N 12 20.5 35.8 1566581 51418
d 1.011864 19 35 tcp 1500 ------N 38 23.5 35.21 46721 51427
d 1.011864 19 35 tcp 1500 ------N 38 23.5 35.21 49641 51430
d 1.011864 19 35 tcp 1500 ------N 38 23.5 35.21 52561 51433
d 1.011865 19 35 tcp 1500 ------N 38 23.5 35.21 55481 51436
d 1.011865 19 35 tcp 1500 ------N 38 23.5 35.21 58401 51439
d 1.012071 19 35 tcp 1500 ------N 32 21.5 35.18 127021 52812
d 1.012078 19 35 tcp 1500 ------N 12 20.5 35.8 1841061 52861
d 1.012082 19 35 tcp 1500 ------N 38 23.5 35.21 164981 52890
d 1.012423 19 35 tcp 1500 ------N 32 21.5 35.18 370841 55172
d 1.012432 19 35 tcp 1500 ------N 12 20.5 35.8 2302421 55229
d 1.012432 19 35 tcp 1500 ------N 36 21.6 35.20 2921 55234
d 1.012639 19 35 tcp 1500 ------N 40 23.6 35.22 11681 56623
d 1.01264 19 35 tcp 1500 ------N 40 23.6 35.22 14601 56626
d 1.01264 19 35 tcp 1500 ------N 40 23.6 35.22 17521 56629
d 1.01264 19 35 tcp 1500 ------N 40 23.6 35.22 20441 56632
d 1.012645 19 35 tcp 1500 ------N 12 20.5 35.8 2560841 56665
d 1.012779 19 35 tcp 1500 ------N 12 20.5 35.8 2660121 57567
d 1.012792 19 35 tcp 1500 ------N 44 23.7 35.24 11681 57652
d 1.012792 19 35 tcp 1500 ------N 44 23.7 35.24 14601 57655
d 1.012793 19 35 tcp 1500 ------N 44 23.7 35.24 17521 57658
d 1.012793 19 35 tcp 1500 ------N 44 23.7 35.24 20441 57661
d 1.012796 19 35 tcp 1500 ------N 32 21.5 35.18 708101 57684
d 1.012803 19 35 tcp 1500 ------N 40 23.6 35.22 58401 57729
d 1.012974 19 35 tcp 1500 ------N 12 20.5 35.8 2776921 58872
d 1.012981 19 35 tcp 1500 ------N 22 22.5 35.13 8761 58919
d 1.01299 19 35 tcp 1500 ------N 32 21.5 35.18 877461 58978
d 1.012996 19 35 tcp 1500 ------N 40 23.6 35.22 121181 59022
d 1.013121 19 35 tcp 1500 ------N 32 21.5 35.18 976741 59863
d 1.013123 19 35 tcp 1500 ------N 46 21.7 35.25 46721 59876
d 1.013123 19 35 tcp 1500 ------N 46 21.7 35.25 49641 59879
d 1.013123 19 35 tcp 1500 ------N 46 21.7 35.25 52561 59882
d 1.013124 19 35 tcp 1500 ------N 46 21.7 35.25 55481 59885
d 1.013124 19 35 tcp 1500 ------N 46 21.7 35.25 58401 59888
d 1.013124 19 35 tcp 1500 ------N 46 21.7 35.25 61321 59891
d 1.013125 19 35 tcp 1500 ------N 46 21.7 35.25 64241 59894
d 1.013125 19 35 tcp 1500 ------N 46 21.7 35.25 67161 59897
d 1.013125 19 35 tcp 1500 ------N 46 21.7 35.25 70081 59900
d 1.013126 19 35 tcp 1500 ------N 46 21.7 35.25 73001 59903
d 1.013126 19 35 tcp 1500 ------N 46 21.7 35.25 75921 59906
d 1.013126 19 35 tcp 1500 ------N 46 21.7 35.25 78841 59909
d 1.013126 19 35 tcp 1500 ------N 46 21.7 35.25 81761 59912
d 1.013127 19 35 tcp 1500 ------N 46 21.7 35.25 84681 59915
d 1.013127 19 35 tcp 1500 ------N 46 21.7 35.25 87601 59918
d 1.013127 19 35 tcp 1500 ------N 46 21.7 35.25 90521 59921
d 1.013128 19 35 tcp 1500 ------N 40 23.6 35.22 166441 59928
d 1.013131 19 35 tcp 1500 ------N 12 20.5 35.8 2855761 59945
d 1.013275 19 35 tcp 1500 ------N 12 20.5 35.8 2924381 60911
d 1.01329 19 35 tcp 1500 ------N 32 21.5 35.18 1073101 61008
d 1.013292 19 35 tcp 1500 ------N 46 21.7 35.25 169361 61026
d 1.013297 19 35 tcp 1500 ------N 48 23.8 35.26 1 61064
d 1.013298 19 35 tcp 1500 ------N 40 23.6 35.22 229221 61071
d 1.013486 19 35 tcp 1500 ------N 32 21.5 35.18 1176761 62324
d 1.013487 19 35 tcp 1500 ------N 12 20.5 35.8 3014901 62333
d 1.013492 19 35 tcp 1500 ------N 40 23.6 35.22 302221 62366
d 1.013624 19 35 tcp 1500 ------N 12 20.5 35.8 3068921 63247
d 1.013628 19 35 tcp 1500 ------N 46 21.7 35.25 494941 63274
d 1.02264 19 35 tcp 1500 ------N 82 22.11 35.43 5841 76321
d 1.022841 19 35 tcp 1500 ------N 88 22.12 35.46 5841 77665
d 1.022841 19 35 tcp 1500 ------N 88 22.12 35.46 8761 77668
d 1.022866 19 35 tcp 1500 ------N 88 22.12 35.46 11681 77831
d 1.023325 19 35 tcp 1500 ------N 76 23.10 35.40 5841 80897
d 1.023325 19 35 tcp 1500 ------N 76 23.10 35.40 8761 80900
d 1.023349 19 35 tcp 1500 ------N 76 23.10 35.40 11681 81063
d 1.027507 19 35 tcp 1500 ------N 76 23.10 35.40 48181 107442
d 1.027522 19 35 tcp 1500 ------N 88 22.12 35.46 1033681 107543
d 1.027844 19 35 tcp 1500 ------N 88 22.12 35.46 1557821 109690
d 1.027855 19 35 tcp 1500 ------N 76 23.10 35.40 220461 109761
d 1.027999 19 35 tcp 1500 ------N 102 22.14 35.53 14601 110731
d 1.027999 19 35 tcp 1500 ------N 102 22.14 35.53 17521 110734
d 1.027999 19 35 tcp 1500 ------N 102 22.14 35.53 20441 110737
d 1.028008 19 35 tcp 1500 ------N 96 20.16 35.50 11681 110800
d 1.028009 19 35 tcp 1500 ------N 96 20.16 35.50 14601 110803
d 1.028009 19 35 tcp 1500 ------N 96 20.16 35.50 17521 110806
d 1.028009 19 35 tcp 1500 ------N 96 20.16 35.50 20441 110809
d 1.028013 19 35 tcp 1500 ------N 88 22.12 35.46 1759301 110834
d 1.028146 19 35 tcp 1500 ------N 96 20.16 35.50 46721 111729
d 1.028148 19 35 tcp 1500 ------N 104 22.15 35.54 1 111743
d 1.028158 19 35 tcp 1500 ------N 102 22.14 35.53 70081 111810
d 1.028166 19 35 tcp 1500 ------N 76 23.10 35.40 473041 111865
d 1.028297 19 35 tcp 1500 ------N 102 22.14 35.53 115341 112742
d 1.028302 19 35 tcp 1500 ------N 76 23.10 35.40 562101 112775
d 1.028315 19 35 tcp 1500 ------N 88 22.12 35.46 2041081 112858
d 1.02847 19 35 tcp 1500 ------N 88 22.12 35.46 2160801 113897
d 1.02848 19 35 tcp 1500 ------N 102 22.14 35.53 178121 113960
d 1.028483 19 35 tcp 1500 ------N 76 23.10 35.40 658461 113987
d 1.028489 19 35 tcp 1500 ------N 96 20.16 35.50 195641 114022
d 1.028819 19 35 tcp 1500 ------N 88 22.12 35.46 2573981 116087
d 1.028824 19 35 tcp 1500 ------N 102 22.14 35.53 477421 116124
d 1.028832 19 35 tcp 1500 ------N 76 23.10 35.40 1017621 116177
d 1.029851 19 35 tcp 1500 ------N 108 23.13 35.56 5841 122983
d 1.029851 19 35 tcp 1500 ------N 108 23.13 35.56 8761 122986
d 1.029875 19 35 tcp 1500 ------N 108 23.13 35.56 11681 123149
d 1.030462 19 35 tcp 1500 ------N 80 21.12 35.42 5841 126966
d 1.030462 19 35 tcp 1500 ------N 80 21.12 35.42 8761 126969
d 1.030487 19 35 tcp 1500 ------N 80 21.12 35.42 11681 127132
d 1.031035 19 35 tcp 1500 ------N 106 20.18 35.55 5841 130792
d 1.033493 19 35 tcp 1500 ------N 124 22.19 35.64 5841 146361
d 1.033493 19 35 tcp 1500 ------N 124 22.19 35.64 8761 146364
d 1.033517 19 35 tcp 1500 ------N 124 22.19 35.64 11681 146527
d 1.074583 19 35 tcp 1500 ------N 272 22.48 35.138 110961 204553
d 1.074583 19 35 tcp 1500 ------N 272 22.48 35.138 113881 204556
d 1.074593 19 35 tcp 1500 ------N 270 23.30 35.137 11681 204623
d 1.074593 19 35 tcp 1500 ------N 270 23.30 35.137 14601 204626
d 1.074594 19 35 tcp 1500 ------N 270 23.30 35.137 17521 204629
d 1.074594 19 35 tcp 1500 ------N 270 23.30 35.137 20441 204632
d 1.075312 19 35 tcp 1500 ------N 270 23.30 35.137 978201 209426
d 1.075316 19 35 tcp 1500 ------N 238 21.25 35.121 23361 209453
d 1.075316 19 35 tcp 1500 ------N 238 21.25 35.121 26281 209456
d 1.075316 19 35 tcp 1500 ------N 238 21.25 35.121 29201 209459
d 1.075317 19 35 tcp 1500 ------N 238 21.25 35.121 32121 209462
d 1.075317 19 35 tcp 1500 ------N 238 21.25 35.121 35041 209465
d 1.075317 19 35 tcp 1500 ------N 238 21.25 35.121 37961 209468
d 1.075318 19 35 tcp 1500 ------N 238 21.25 35.121 40881 209471
d 1.075318 19 35 tcp 1500 ------N 238 21.25 35.121 43801 209474
d 1.075947 19 35 tcp 1500 ------N 242 21.26 35.123 5841 213649
d 1.075948 19 35 tcp 1500 ------N 242 21.26 35.123 8761 213652
d 1.075972 19 35 tcp 1500 ------N 242 21.26 35.123 11681 213815
d 1.098146 19 35 tcp 1500 ------N 324 22.57 35.164 5841 274882
d 1.098146 19 35 tcp 1500 ------N 324 22.57 35.164 8761 274885
d 1.09817 19 35 tcp 1500 ------N 324 22.57 35.164 11681 275048
d 1.098282 19 35 tcp 1500 ------N 340 21.36 35.172 5841 275796
d 1.098282 19 35 tcp 1500 ------N 340 21.36 35.172 8761 275799
d 1.098306 19 35 tcp 1500 ------N 340 21.36 35.172 11681 275962
d 1.100492 19 35 tcp 1500 ------N 356 21.38 35.180 110961 286389
d 1.100492 19 35 tcp 1500 ------N 356 21.38 35.180 113881 286392
d 1.100511 19 35 tcp 1500 ------N 348 20.47 35.176 11681 286519
d 1.100511 19 35 tcp 1500 ------N 348 20.47 35.176 14601 286522
d 1.100512 19 35 tcp 1500 ------N 348 20.47 35.176 17521 286525
d 1.100512 19 35 tcp 1500 ------N 348 20.47 35.176 20441 286528
d 1.100791 19 35 tcp 1500 ------N 348 20.47 35.176 138701 288387
d 1.1008 19 35 tcp 1500 ------N 356 21.38 35.180 659921 288452
d 1.101036 19 35 tcp 1500 ------N 356 21.38 35.180 1003021 290030
d 1.101041 19 35 tcp 1500 ------N 354 23.37 35.179 11681 290061
d 1.101041 19 35 tcp 1500 ------N 354 23.37 35.179 14601 290064
d 1.101041 19 35 tcp 1500 ------N 354 23.37 35.179 17521 290067
d 1.101042 19 35 tcp 1500 ------N 354 23.37 35.179 20441 290070
d 1.101202 19 35 tcp 1500 ------N 354 23.37 35.179 58401 291137
d 1.101213 19 35 tcp 1500 ------N 348 20.47 35.176 490561 291216
d 1.101219 19 35 tcp 1500 ------N 356 21.38 35.180 1170921 291253
d 1.101579 19 35 tcp 1500 ------N 348 20.47 35.176 874541 293658
d 1.101587 19 35 tcp 1500 ------N 356 21.38 35.180 1508181 293715
d 1.101889 19 35 tcp 1500 ------N 356 21.38 35.180 1823541 295728
d 1.101904 19 35 tcp 1500 ------N 348 20.47 35.176 1245381 295829
d 1.116279 19 35 tcp 1500 ------N 406 22.64 35.205 5841 342145
d 1.116279 19 35 tcp 1500 ------N 406 22.64 35.205 8761 342148
d 1.116303 19 35 tcp 1500 ------N 406 22.64 35.205 11681 342311
d 1.116962 19 35 tcp 1500 ------N 412 23.45 35.208 5841 346709
d 1.116963 19 35 tcp 1500 ------N 412 23.45 35.208 8761 346712
d 1.116987 19 35 tcp 1500 ------N 412 23.45 35.208 11681 346875
d 1.117367 19 35 tcp 1500 ------N 392 20.52 35.198 5841 349411
d 1.117367 19 35 tcp 1500 ------N 392 20.52 35.198 8761 349414
d 1.117391 19 35 tcp 1500 ------N 392 20.52 35.198 11681 349577
d 1.120352 19 35 tcp 1500 ------N 406 22.64 35.205 13141 368957
d 1.124425 19 35 tcp 1500 ------N 406 22.64 35.205 23361 395081
d 1.129793 19 35 tcp 1500 ------N 458 23.52 35.231 2921 419124
d 1.129804 19 35 tcp 1500 ------N 436 20.57 35.220 2921 419197
d 1.129818 19 35 tcp 1500 ------N 458 23.52 35.231 5841 419290
d 1.129828 19 35 tcp 1500 ------N 436 20.57 35.220 5841 419363
d 1.138585 19 35 tcp 1500 ------N 460 22.70 35.232 75921 448201
d 1.138585 19 35 tcp 1500 ------N 460 22.70 35.232 78841 448204
d 1.138585 19 35 tcp 1500 ------N 460 22.70 35.232 81761 448207
d 1.138585 19 35 tcp 1500 ------N 460 22.70 35.232 84681 448210
d 1.138586 19 35 tcp 1500 ------N 460 22.70 35.232 87601 448213
d 1.138596 19 35 tcp 1500 ------N 478 21.56 35.241 49641 448280
d 1.138596 19 35 tcp 1500 ------N 478 21.56 35.241 52561 448283
d 1.138596 19 35 tcp 1500 ------N 478 21.56 35.241 55481 448286
d 1.138597 19 35 tcp 1500 ------N 478 21.56 35.241 58401 448289
d 1.138597 19 35 tcp 1500 ------N 478 21.56 35.241 61321 448292
d 1.138597 19 35 tcp 1500 ------N 478 21.56 35.241 64241 448295
d 1.138597 19 35 tcp 1500 ------N 478 21.56 35.241 67161 448298
d 1.138598 19 35 tcp 1500 ------N 478 21.56 35.241 70081 448301
d 1.138598 19 35 tcp 1500 ------N 478 21.56 35.241 73001 448304
d 1.138598 19 35 tcp 1500 ------N 478 21.56 35.241 75921 448307
d 1.138599 19 35 tcp 1500 ------N 478 21.56 35.241 78841 448310
d 1.138599 19 35 tcp 1500 ------N 478 21.56 35.241 81761 448313
d 1.138599 19 35 tcp 1500 ------N 478 21.56 35.241 84681 448316
d 1.1386 19 35 tcp 1500 ------N 478 21.56 35.241 87601 448319
d 1.1386 19 35 tcp 1500 ------N 478 21.56 35.241 90521 448322
d 1.150072 19 35 tcp 1500 ------N 518 21.62 35.261 5841 472411
d 1.150073 19 35 tcp 1500 ------N 518 21.62 35.261 8761 472414
d 1.150097 19 35 tcp 1500 ------N 518 21.62 35.261 11681 472577
d 1.151362 19 35 tcp 1500 ------N 520 21.63 35.262 110961 480603
d 1.151363 19 35 tcp 1500 ------N 520 21.63 35.262 113881 480606
d 1.151382 19 35 tcp 1500 ------N 494 20.66 35.249 11681 480735
d 1.151382 19 35 tcp 1500 ------N 494 20.66 35.249 14601 480738
d 1.151382 19 35 tcp 1500 ------N 494 20.66 35.249 17521 480741
d 1.151383 19 35 tcp 1500 ------N 494 20.66 35.249 20441 480744
d 1.151587 19 35 tcp 1500 ------N 528 22.80 35.266 17521 482110
d 1.151587 19 35 tcp 1500 ------N 528 22.80 35.266 20441 482113
d 1.151592 19 35 tcp 1500 ------N 494 20.66 35.249 86141 482142
d 1.151601 19 35 tcp 1500 ------N 520 21.63 35.262 524141 482205
d 1.151611 19 35 tcp 1500 ------N 528 22.80 35.266 23361 482270
d 1.151611 19 35 tcp 1500 ------N 528 22.80 35.266 26281 482273
d 1.151611 19 35 tcp 1500 ------N 528 22.80 35.266 29201 482276
d 1.151611 19 35 tcp 1500 ------N 528 22.80 35.266 32121 482279
d 1.151612 19 35 tcp 1500 ------N 528 22.80 35.266 35041 482282
d 1.151941 19 35 tcp 1500 ------N 520 21.63 35.262 1001561 484477
d 1.151955 19 35 tcp 1500 ------N 494 20.66 35.249 329961 484572
d 1.152257 19 35 tcp 1500 ------N 494 20.66 35.249 604441 486589
d 1.152265 19 35 tcp 1500 ------N 520 21.63 35.262 1416201 486640
d 1.152392 19 35 tcp 1500 ------N 530 22.81 35.267 43801 487494
d 1.152407 19 35 tcp 1500 ------N 494 20.66 35.249 715401 487593
d 1.152411 19 35 tcp 1500 ------N 520 21.63 35.262 1557821 487620
d 1.152413 19 35 tcp 1500 ------N 530 22.81 35.267 46721 487633
d 1.152413 19 35 tcp 1500 ------N 530 22.81 35.267 49641 487636
d 1.152413 19 35 tcp 1500 ------N 530 22.81 35.267 52561 487639
d 1.152414 19 35 tcp 1500 ------N 530 22.81 35.267 55481 487642
d 1.152414 19 35 tcp 1500 ------N 530 22.81 35.267 58401 487645
d 1.152414 19 35 tcp 1500 ------N 530 22.81 35.267 61321 487648
d 1.152415 19 35 tcp 1500 ------N 530 22.81 35.267 64241 487651
d 1.152415 19 35 tcp 1500 ------N 530 22.81 35.267 67161 487654
d 1.152415 19 35 tcp 1500 ------N 530 22.81 35.267 70081 487657
d 1.152415 19 35 tcp 1500 ------N 530 22.81 35.267 73001 487660
d 1.152416 19 35 tcp 1500 ------N 530 22.81 35.267 75921 487663
d 1.152416 19 35 tcp 1500 ------N 530 22.81 35.267 78841 487666
d 1.152416 19 35 tcp 1500 ------N 530 22.81 35.267 81761 487669
d 1.152417 19 35 tcp 1500 ------N 530 22.81 35.267 84681 487672
d 1.152417 19 35 tcp 1500 ------N 530 22.81 35.267 87601 487675
d 1.152802 19 35 tcp 1500 ------N 494 20.66 35.249 1068721 490245
d 1.152804 19 35 tcp 1500 ------N 520 21.63 35.262 1962241 490264
d 1.152821 19 35 tcp 1500 ------N 534 22.82 35.269 1 490377
d 1.153105 19 35 tcp 1500 ------N 520 21.63 35.262 2298041 492270
d 1.153129 19 35 tcp 1500 ------N 494 20.66 35.249 1417661 492431
d 1.154146 19 35 tcp 1500 ------N 518 21.62 35.261 13141 499216
d 1.157404 19 35 tcp 1500 ------N 538 20.69 35.271 23361 514461
d 1.157404 19 35 tcp 1500 ------N 538 20.69 35.271 26281 514464
d 1.157404 19 35 tcp 1500 ------N 538 20.69 35.271 29201 514467
d 1.157404 19 35 tcp 1500 ------N 538 20.69 35.271 32121 514470
d 1.157405 19 35 tcp 1500 ------N 538 20.69 35.271 35041 514473
d 1.157405 19 35 tcp 1500 ------N 538 20.69 35.271 37961 514476
d 1.157405 19 35 tcp 1500 ------N 538 20.69 35.271 40881 514479
d 1.157406 19 35 tcp 1500 ------N 538 20.69 35.271 43801 514482
d 1.157413 19 35 tcp 1500 ------N 534 22.82 35.269 918341 514535
d 1.157428 19 35 tcp 1500 ------N 538 20.69 35.271 46721 514634
d 1.157711 19 35 tcp 1500 ------N 534 22.82 35.269 1376781 516519
d 1.15773 19 35 tcp 1500 ------N 538 20.69 35.271 226301 516646
d 1.158057 19 35 tcp 1500 ------N 536 22.83 35.270 58401 518836
d 1.158057 19 35 tcp 1500 ------N 536 22.83 35.270 61321 518839
d 1.158058 19 35 tcp 1500 ------N 536 22.83 35.270 64241 518842
d 1.158058 19 35 tcp 1500 ------N 536 22.83 35.270 67161 518845
d 1.158058 19 35 tcp 1500 ------N 536 22.83 35.270 70081 518848
d 1.158059 19 35 tcp 1500 ------N 536 22.83 35.270 73001 518851
d 1.158059 19 35 tcp 1500 ------N 536 22.83 35.270 75921 518854
d 1.158059 19 35 tcp 1500 ------N 536 22.83 35.270 78841 518857
d 1.158059 19 35 tcp 1500 ------N 536 22.83 35.270 81761 518860
d 1.15806 19 35 tcp 1500 ------N 536 22.83 35.270 84681 518863
d 1.15806 19 35 tcp 1500 ------N 536 22.83 35.270 87601 518866
d 1.15806 19 35 tcp 1500 ------N 536 22.83 35.270 90521 518869
d 1.158065 19 35 tcp 1500 ------N 538 20.69 35.271 630721 518898
d 1.158079 19 35 tcp 1500 ------N 536 22.83 35.270 93441 518997
d 1.15808 19 35 tcp 1500 ------N 536 22.83 35.270 96361 519000
d 1.15808 19 35 tcp 1500 ------N 536 22.83 35.270 99281 519003
d 1.15808 19 35 tcp 1500 ------N 536 22.83 35.270 102201 519006
d 1.15808 19 35 tcp 1500 ------N 536 22.83 35.270 105121 519009
d 1.158081 19 35 tcp 1500 ------N 536 22.83 35.270 108041 519012
d 1.158081 19 35 tcp 1500 ------N 536 22.83 35.270 110961 519015
d 1.158081 19 35 tcp 1500 ------N 536 22.83 35.270 113881 519018
d 1.158488 19 35 tcp 1500 ------N 544 22.84 35.274 78841 521742
d 1.158488 19 35 tcp 1500 ------N 544 22.84 35.274 81761 521745
d 1.158489 19 35 tcp 1500 ------N 544 22.84 35.274 84681 521748
d 1.158489 19 35 tcp 1500 ------N 544 22.84 35.274 87601 521751
d 1.158489 19 35 tcp 1500 ------N 544 22.84 35.274 90521 521754
d 1.158496 19 35 tcp 1500 ------N 518 21.62 35.261 213161 521799
d 1.158506 19 35 tcp 1500 ------N 544 22.84 35.274 93441 521868
d 1.158506 19 35 tcp 1500 ------N 544 22.84 35.274 96361 521871
d 1.158507 19 35 tcp 1500 ------N 544 22.84 35.274 99281 521874
d 1.158507 19 35 tcp 1500 ------N 544 22.84 35.274 102201 521877
d 1.158507 19 35 tcp 1500 ------N 544 22.84 35.274 105121 521880
d 1.158508 19 35 tcp 1500 ------N 544 22.84 35.274 108041 521883
d 1.158508 19 35 tcp 1500 ------N 544 22.84 35.274 110961 521886
d 1.158508 19 35 tcp 1500 ------N 544 22.84 35.274 113881 521889
d 1.159119 19 35 tcp 1500 ------N 518 21.62 35.261 1331521 525902
d 1.159136 19 35 tcp 1500 ------N 540 21.65 35.272 11681 526019
d 1.159137 19 35 tcp 1500 ------N 540 21.65 35.272 14601 526022
d 1.159137 19 35 tcp 1500 ------N 540 21.65 35.272 17521 526025
d 1.159137 19 35 tcp 1500 ------N 540 21.65 35.272 20441 526028
d 1.16068 19 35 tcp 1500 ------N 564 20.73 35.284 5841 535957
d 1.160861 19 35 tcp 1500 ------N 550 22.86 35.277 2921 537168
d 1.16088 19 35 tcp 1500 ------N 566 20.74 35.285 2921 537297
d 1.160885 19 35 tcp 1500 ------N 550 22.86 35.277 5841 537334
d 1.160905 19 35 tcp 1500 ------N 566 20.74 35.285 5841 537463
d 1.170419 19 35 tcp 1500 ------N 578 22.91 35.291 5841 560853
d 1.17042 19 35 tcp 1500 ------N 578 22.91 35.291 8761 560856
d 1.170444 19 35 tcp 1500 ------N 578 22.91 35.291 11681 561019
d 1.171734 19 35 tcp 1500 ------N 604 23.64 35.304 5841 569218
d 1.171735 19 35 tcp 1500 ------N 604 23.64 35.304 8761 569221
d 1.171759 19 35 tcp 1500 ------N 604 23.64 35.304 11681 569384
d 1.17196 19 35 tcp 1500 ------N 608 23.65 35.306 5841 570727
d 1.17196 19 35 tcp 1500 ------N 608 23.65 35.306 8761 570730
d 1.171968 19 35 tcp 1500 ------N 592 20.79 35.298 1 570785
d 1.171984 19 35 tcp 1500 ------N 608 23.65 35.306 11681 570896
d 1.173387 19 35 tcp 1500 ------N 614 20.81 35.309 5841 580088
d 1.173387 19 35 tcp 1500 ------N 614 20.81 35.309 8761 580091
d 1.173412 19 35 tcp 1500 ------N 614 20.81 35.309 11681 580254
d 1.173745 19 35 tcp 1500 ------N 582 22.92 35.293 5841 582480
d 1.173745 19 35 tcp 1500 ------N 582 22.92 35.293 8761 582483
d 1.17377 19 35 tcp 1500 ------N 582 22.92 35.293 11681 582646
d 1.174837 19 35 tcp 1500 ------N 612 21.72 35.308 61321 588641
d 1.174837 19 35 tcp 1500 ------N 612 21.72 35.308 64241 588644
d 1.174837 19 35 tcp 1500 ------N 612 21.72 35.308 67161 588647
d 1.174838 19 35 tcp 1500 ------N 612 21.72 35.308 70081 588650
d 1.174838 19 35 tcp 1500 ------N 612 21.72 35.308 73001 588653
d 1.174838 19 35 tcp 1500 ------N 612 21.72 35.308 75921 588656
d 1.174838 19 35 tcp 1500 ------N 612 21.72 35.308 78841 588659
d 1.174839 19 35 tcp 1500 ------N 612 21.72 35.308 81761 588662
d 1.174839 19 35 tcp 1500 ------N 612 21.72 35.308 84681 588665
d 1.174839 19 35 tcp 1500 ------N 612 21.72 35.308 87601 588668
d 1.17484 19 35 tcp 1500 ------N 612 21.72 35.308 90521 588671
d 1.174848 19 35 tcp 1500 ------N 578 22.91 35.291 686201 588728
d 1.174849 19 35 tcp 1500 ------N 616 20.82 35.310 93441 588733
d 1.174849 19 35 tcp 1500 ------N 616 20.82 35.310 96361 588736
d 1.174849 19 35 tcp 1500 ------N 616 20.82 35.310 99281 588739
d 1.17485 19 35 tcp 1500 ------N 616 20.82 35.310 102201 588742
d 1.17485 19 35 tcp 1500 ------N 616 20.82 35.310 105121 588745
d 1.17485 19 35 tcp 1500 ------N 616 20.82 35.310 108041 588748
d 1.17485 19 35 tcp 1500 ------N 616 20.82 35.310 110961 588751
d 1.174851 19 35 tcp 1500 ------N 616 20.82 35.310 113881 588754
d 1.174858 19 35 tcp 1500 ------N 612 21.72 35.308 93441 588805
d 1.174859 19 35 tcp 1500 ------N 612 21.72 35.308 96361 588808
d 1.174859 19 35 tcp 1500 ------N 612 21.72 35.308 99281 588811
d 1.174859 19 35 tcp 1500 ------N 612 21.72 35.308 102201 588814
d 1.174859 19 35 tcp 1500 ------N 612 21.72 35.308 105121 588817
d 1.17486 19 35 tcp 1500 ------N 612 21.72 35.308 108041 588820
d 1.17486 19 35 tcp 1500 ------N 612 21.72 35.308 110961 588823
d 1.17486 19 35 tcp 1500 ------N 612 21.72 35.308 113881 588826
d 1.174983 19 35 tcp 1500 ------N 616 20.82 35.310 346021 589618
d 1.174986 19 35 tcp 1500 ------N 590 22.93 35.297 46721 589639
d 1.174986 19 35 tcp 1500 ------N 590 22.93 35.297 49641 589642
d 1.174986 19 35 tcp 1500 ------N 590 22.93 35.297 52561 589645
d 1.174986 19 35 tcp 1500 ------N 590 22.93 35.297 55481 589648
d 1.174987 19 35 tcp 1500 ------N 590 22.93 35.297 58401 589651
d 1.174987 19 35 tcp 1500 ------N 590 22.93 35.297 61321 589654
d 1.174987 19 35 tcp 1500 ------N 590 22.93 35.297 64241 589657
d 1.174988 19 35 tcp 1500 ------N 590 22.93 35.297 67161 589660
d 1.174988 19 35 tcp 1500 ------N 590 22.93 35.297 70081 589663
d 1.174988 19 35 tcp 1500 ------N 590 22.93 35.297 73001 589666
d 1.174989 19 35 tcp 1500 ------N 590 22.93 35.297 75921 589669
d 1.174989 19 35 tcp 1500 ------N 590 22.93 35.297 78841 589672
d 1.174989 19 35 tcp 1500 ------N 590 22.93 35.297 81761 589675
d 1.174989 19 35 tcp 1500 ------N 590 22.93 35.297 84681 589678
d 1.17499 19 35 tcp 1500 ------N 590 22.93 35.297 87601 589681
d 1.17499 19 35 tcp 1500 ------N 590 22.93 35.297 90521 589684
d 1.174994 19 35 tcp 1500 ------N 612 21.72 35.308 242361 589713
d 1.175001 19 35 tcp 1500 ------N 578 22.91 35.291 911041 589762
d 1.175209 19 35 tcp 1500 ------N 590 22.93 35.297 294921 591128
d 1.175313 19 35 tcp 1500 ------N 578 22.91 35.291 1259981 591821
d 1.175326 19 35 tcp 1500 ------N 616 20.82 35.310 816141 591908